                         Program Version 4.0.0.2 - RELEASE -
|  1> ! DLPNO-CCSD(T) cc-pVTZ cc-pVTZ/C cc-pVTZ/JK RIJCOSX TightSCF
|  2> * xyz 0 2
|  3> Br 0.0  0.0  0.0
|  4> *
|  5>
|  6>                          ****END OF INPUT****

CARTESIAN COORDINATES (ANGSTROEM)
---------------------------------
  Br     0.000000    0.000000    0.000000

 Total Charge           Charge          ....    0
 Multiplicity           Mult            ....    2
 Number of Electrons    NEL             ....   35
 Basis Dimension        Dim             ....   43

ORBITAL ENERGIES
----------------
                 SPIN UP ORBITALS
  NO   OCC          E(Eh)            E(eV)
   0   1.0000    -490.059119    -13335.1866
   1   1.0000     -65.197979     -1774.1272
   2   1.0000     -58.558144     -1593.4481
   3   1.0000     -58.550848     -1593.2496
   4   1.0000     -58.550848     -1593.2496
   5   1.0000      -9.873941      -268.6836
   6   1.0000      -7.497261      -204.0108
   7   1.0000      -7.473907      -203.3754
   8   1.0000      -7.473907      -203.3754
   9   1.0000      -3.231913       -87.9448
  10   1.0000      -3.226398       -87.7948
  11   1.0000      -3.226398       -87.7948
  12   1.0000      -3.210025       -87.3492
  13   1.0000      -3.210007       -87.3487
  14   1.0000      -1.047380       -28.5007
  15   1.0000      -0.523257       -14.2385
  16   1.0000      -0.453680       -12.3453
  17   1.0000      -0.453680       -12.3453
  18   0.0000       0.346313         9.4237
  19   0.0000       0.374343        10.1864
  20   0.0000       0.374343        10.1864
  21   0.0000       0.399995        10.8844
  22   0.0000       0.478495        13.0205

                 SPIN DOWN ORBITALS
  NO   OCC          E(Eh)            E(eV)
   0   1.0000    -490.054995    -13335.0743
   1   1.0000     -65.195877     -1774.0700
   2   1.0000     -58.549646     -1593.2169
   3   1.0000     -58.549646     -1593.2169
   4   1.0000     -58.546847     -1593.1407
   5   1.0000      -9.865894      -268.4646
   6   1.0000      -7.471865      -203.3198
   7   1.0000      -7.471865      -203.3198
   8   1.0000      -7.468486      -203.2278
   9   1.0000      -3.221447       -87.6600
  10   1.0000      -3.218419       -87.5776
  11   1.0000      -3.218419       -87.5776
  12   1.0000      -3.209585       -87.3373
  13   1.0000      -3.209568       -87.3368
  14   1.0000      -0.940487       -25.5919
  15   1.0000      -0.433403       -11.7935
  16   1.0000      -0.433403       -11.7935
  17   0.0000      -0.045813        -1.2466
  18   0.0000       0.379208        10.3188
  19   0.0000       0.379208        10.3188
  20   0.0000       0.404331        11.0024
  21   0.0000       0.419192        11.4068

MULLIKEN ATOMIC CHARGES AND SPIN POPULATIONS
--------------------------------------------
   0 Br:   -0.000000    1.000000
Sum of atomic charges         :   -0.0000000

LOEWDIN ATOMIC CHARGES AND SPIN POPULATIONS
-------------------------------------------
   0 Br:   -0.000000    1.000000

E(0)                                       ...  -2572.440500523
E(0)                                       ...  -2572.440500523
E(CORR)(strong-pairs)                      ...     -0.211570466
E(CORR)(weak-pairs)                        ...     -0.002733132
E(CORR)(corrected)                         ...     -0.214303598
E(TOT)                                     ...  -2572.654804120
E(CCSD(T))                                 ...  -2572.660809737
FINAL SINGLE POINT ENERGY     -2572.660809737494

DIPOLE MOMENT
-------------
                                X             Y             Z
Electronic contribution:      0.00000      -0.00000      -0.00000
Nuclear contribution   :      0.00000       0.00000       0.00000
                        -----------------------------------------
Total Dipole Moment    :      0.00000      -0.00000      -0.00000
                        -----------------------------------------
Magnitude (a.u.)       :      0.00000
Magnitude (Debye)      :      0.00000

                             ****ORCA TERMINATED NORMALLY****
TOTAL RUN TIME: 0 days 0 hours 0 minutes 33 seconds 500 msec
