                         Program Version 4.0.0.2 - RELEASE -
|  1> ! DLPNO-CCSD(T) cc-pVTZ cc-pVTZ/C cc-pVTZ/JK RIJCOSX TightSCF
|  2> * xyz 0 3
|  3> C  0.0  0.0  0.0
|  4> *
|  5>
|  6>                          ****END OF INPUT****

CARTESIAN COORDINATES (ANGSTROEM)
---------------------------------
  C      0.000000    0.000000    0.000000

 Total Charge           Charge          ....    0
 Multiplicity           Mult            ....    3
 Number of Electrons    NEL             ....    6
 Basis Dimension        Dim             ....   30

ORBITAL ENERGIES
----------------
                 SPIN UP ORBITALS
  NO   OCC          E(Eh)            E(eV)
   0   1.0000     -11.344414      -308.6972
   1   1.0000      -0.828129       -22.5345
   2   1.0000      -0.437710       -11.9107
   3   1.0000      -0.437710       -11.9107
   4   0.0000       0.035267         0.9597
   5   0.0000       0.423571        11.5260
   6   0.0000       0.423571        11.5260
   7   0.0000       0.488724        13.2989
   8   0.0000       0.495824        13.4921

                 SPIN DOWN ORBITALS
  NO   OCC          E(Eh)            E(eV)
   0   1.0000     -11.299597      -307.4777
   1   1.0000      -0.583435       -15.8761
   2   0.0000       0.068658         1.8683
   3   0.0000       0.122012         3.3201
   4   0.0000       0.122012         3.3201
   5   0.0000       0.515625        14.0309
   6   0.0000       0.557291        15.1647

MULLIKEN ATOMIC CHARGES AND SPIN POPULATIONS
--------------------------------------------
   0 C :    0.000000    2.000000
Sum of atomic charges         :    0.0000000

LOEWDIN ATOMIC CHARGES AND SPIN POPULATIONS
-------------------------------------------
   0 C :    0.000000    2.000000

E(0)                                       ...    -37.686611541
E(0)                                       ...    -37.686611541
E(CORR)(strong-pairs)                      ...     -0.090762223
E(CORR)(weak-pairs)                        ...     -0.001002645
E(CORR)(corrected)                         ...     -0.091764868
E(TOT)                                     ...    -37.778376408
E(CCSD(T))                                 ...    -37.780382761
FINAL SINGLE POINT ENERGY       -37.780382760664

DIPOLE MOMENT
-------------
                                X             Y             Z
Electronic contribution:      0.00000      -0.00000      -0.00000
Nuclear contribution   :      0.00000       0.00000       0.00000
                        -----------------------------------------
Total Dipole Moment    :      0.00000      -0.00000      -0.00000
                        -----------------------------------------
Magnitude (a.u.)       :      0.00000
Magnitude (Debye)      :      0.00000

                             ****ORCA TERMINATED NORMALLY****
TOTAL RUN TIME: 0 days 0 hours 0 minutes 8 seconds 799 msec
