                         Program Version 4.0.0.2 - RELEASE -
|  1> ! DLPNO-CCSD(T) cc-pVTZ cc-pVTZ/C cc-pVTZ/JK RIJCOSX TightSCF
|  2> * xyz 0 2
|  3> Cl 0.0  0.0  0.0
|  4> *
|  5>
|  6>                          ****END OF INPUT****

CARTESIAN COORDINATES (ANGSTROEM)
---------------------------------
  Cl     0.000000    0.000000    0.000000

 Total Charge           Charge          ....    0
 Multiplicity           Mult            ....    2
 Number of Electrons    NEL             ....   17
 Basis Dimension        Dim             ....   34

ORBITAL ENERGIES
----------------
                 SPIN UP ORBITALS
  NO   OCC          E(Eh)            E(eV)
   0   1.0000    -104.887312     -2854.1289
   1   1.0000     -10.610733      -288.7327
   2   1.0000      -8.096091      -220.3058
   3   1.0000      -8.071568      -219.6385
   4   1.0000      -8.071564      -219.6384
   5   1.0000      -1.134796       -30.8794
   6   1.0000      -0.580143       -15.7865
   7   1.0000      -0.501458       -13.6454
   8   1.0000      -0.501458       -13.6454
   9   0.0000       0.446130        12.1398
  10   0.0000       0.479655        13.0521
  11   0.0000       0.479655        13.0521
  12   0.0000       0.578262        15.7353
  13   0.0000       0.584298        15.8995

                 SPIN DOWN ORBITALS
  NO   OCC          E(Eh)            E(eV)
   0   1.0000    -104.876252     -2853.8279
   1   1.0000     -10.599522      -288.4277
   2   1.0000      -8.065915      -219.4847
   3   1.0000      -8.065812      -219.4819
   4   1.0000      -8.047076      -218.9721
   5   1.0000      -1.013463       -27.5777
   6   1.0000      -0.479620       -13.0511
   7   1.0000      -0.479610       -13.0509
   8   0.0000      -0.034609        -0.9418
   9   0.0000       0.485718        13.2170
  10   0.0000       0.485722        13.2172
  11   0.0000       0.522261        14.2114
  12   0.0000       0.602780        16.4025

MULLIKEN ATOMIC CHARGES AND SPIN POPULATIONS
--------------------------------------------
   0 Cl:   -0.000000    1.000000
Sum of atomic charges         :   -0.0000000

LOEWDIN ATOMIC CHARGES AND SPIN POPULATIONS
-------------------------------------------
   0 Cl:   -0.000000    1.000000

E(0)                                       ...   -459.480090401
E(0)                                       ...   -459.480090401
E(CORR)(strong-pairs)                      ...     -0.184214660
E(CORR)(weak-pairs)                        ...     -0.002372160
E(CORR)(corrected)                         ...     -0.186586821
E(TOT)                                     ...   -459.666677221
E(CCSD(T))                                 ...   -459.672097753
FINAL SINGLE POINT ENERGY      -459.672097752782

DIPOLE MOMENT
-------------
                                X             Y             Z
Electronic contribution:      0.00000      -0.00000       0.00000
Nuclear contribution   :      0.00000       0.00000       0.00000
                        -----------------------------------------
Total Dipole Moment    :      0.00000      -0.00000       0.00000
                        -----------------------------------------
Magnitude (a.u.)       :      0.00000
Magnitude (Debye)      :      0.00000

                             ****ORCA TERMINATED NORMALLY****
TOTAL RUN TIME: 0 days 0 hours 0 minutes 8 seconds 226 msec
