                         Program Version 4.0.0.2 - RELEASE -
|  1> ! DLPNO-CCSD(T) cc-pVTZ cc-pVTZ/C cc-pVTZ/JK RIJCOSX TightSCF
|  2> * xyz 0 2
|  3> F  0.0  0.0  0.0
|  4> *
|  5>
|  6>                          ****END OF INPUT****

CARTESIAN COORDINATES (ANGSTROEM)
---------------------------------
  F      0.000000    0.000000    0.000000

 Total Charge           Charge          ....    0
 Multiplicity           Mult            ....    2
 Number of Electrons    NEL             ....    9
 Basis Dimension        Dim             ....   30

ORBITAL ENERGIES
----------------
                 SPIN UP ORBITALS
  NO   OCC          E(Eh)            E(eV)
   0   1.0000     -26.402655      -718.4528
   1   1.0000      -1.668761       -45.4093
   2   1.0000      -0.839768       -22.8512
   3   1.0000      -0.726947       -19.7812
   4   1.0000      -0.726947       -19.7812
   5   0.0000       0.854139        23.2423
   6   0.0000       0.903525        24.5862
   7   0.0000       0.903525        24.5862
   8   0.0000       1.132658        30.8212
   9   0.0000       2.151098        58.5343

                 SPIN DOWN ORBITALS
  NO   OCC          E(Eh)            E(eV)
   0   1.0000     -26.355069      -717.1579
   1   1.0000      -1.474633       -40.1268
   2   1.0000      -0.676351       -18.4045
   3   1.0000      -0.676351       -18.4045
   4   0.0000       0.068978         1.8770
   5   0.0000       0.919539        25.0219
   6   0.0000       0.919539        25.0219
   7   0.0000       1.024621        27.8814
   8   0.0000       1.178373        32.0652

MULLIKEN ATOMIC CHARGES AND SPIN POPULATIONS
--------------------------------------------
   0 F :   -0.000000    1.000000
Sum of atomic charges         :   -0.0000000

LOEWDIN ATOMIC CHARGES AND SPIN POPULATIONS
-------------------------------------------
   0 F :   -0.000000    1.000000

E(0)                                       ...    -99.400981431
E(0)                                       ...    -99.400981431
E(CORR)(strong-pairs)                      ...     -0.213268073
E(CORR)(weak-pairs)                        ...     -0.002436506
E(CORR)(corrected)                         ...     -0.215704579
E(TOT)                                     ...    -99.616686010
E(CCSD(T))                                 ...    -99.620143796
FINAL SINGLE POINT ENERGY       -99.620143796096

DIPOLE MOMENT
-------------
                                X             Y             Z
Electronic contribution:      0.00000       0.00000       0.00000
Nuclear contribution   :      0.00000       0.00000       0.00000
                        -----------------------------------------
Total Dipole Moment    :      0.00000       0.00000       0.00000
                        -----------------------------------------
Magnitude (a.u.)       :      0.00000
Magnitude (Debye)      :      0.00000

                             ****ORCA TERMINATED NORMALLY****
TOTAL RUN TIME: 0 days 0 hours 0 minutes 5 seconds 66 msec
