                         Program Version 4.0.0.2 - RELEASE -
|  1> ! DLPNO-CCSD(T) cc-pVTZ cc-pVTZ/C cc-pVTZ/JK RIJCOSX TightSCF
|  2> * xyz 0 4
|  3> N  0.0  0.0  0.0
|  4> *
|  5>
|  6>                          ****END OF INPUT****

CARTESIAN COORDINATES (ANGSTROEM)
---------------------------------
  N      0.000000    0.000000    0.000000

 Total Charge           Charge          ....    0
 Multiplicity           Mult            ....    4
 Number of Electrons    NEL             ....    7
 Basis Dimension        Dim             ....   30

ORBITAL ENERGIES
----------------
                 SPIN UP ORBITALS
  NO   OCC          E(Eh)            E(eV)
   0   1.0000     -15.668858      -426.3713
   1   1.0000      -1.161129       -31.5959
   2   1.0000      -0.568680       -15.4746
   3   1.0000      -0.568680       -15.4746
   4   1.0000      -0.568680       -15.4746
   5   0.0000       0.584552        15.9065
   6   0.0000       0.584552        15.9065
   7   0.0000       0.584552        15.9065
   8   0.0000       0.663627        18.0582
   9   0.0000       1.378459        37.5098

                 SPIN DOWN ORBITALS
  NO   OCC          E(Eh)            E(eV)
   0   1.0000     -15.579495      -423.9396
   1   1.0000      -0.725668       -19.7464
   2   0.0000       0.143603         3.9076
   3   0.0000       0.143603         3.9076
   4   0.0000       0.143603         3.9076
   5   0.0000       0.761213        20.7137
   6   0.0000       0.761213        20.7137

MULLIKEN ATOMIC CHARGES AND SPIN POPULATIONS
--------------------------------------------
   0 N :   -0.000000    3.000000
Sum of atomic charges         :   -0.0000000

LOEWDIN ATOMIC CHARGES AND SPIN POPULATIONS
-------------------------------------------
   0 N :   -0.000000    3.000000

E(0)                                       ...    -54.397200647
E(0)                                       ...    -54.397200647
E(CORR)(strong-pairs)                      ...     -0.108253431
E(CORR)(weak-pairs)                        ...     -0.001024445
E(CORR)(corrected)                         ...     -0.109277875
E(TOT)                                     ...    -54.506478523
E(CCSD(T))                                 ...    -54.508455584
FINAL SINGLE POINT ENERGY       -54.508455583608

DIPOLE MOMENT
-------------
                                X             Y             Z
Electronic contribution:     -0.00000       0.00000       0.00000
Nuclear contribution   :      0.00000       0.00000       0.00000
                        -----------------------------------------
Total Dipole Moment    :     -0.00000       0.00000       0.00000
                        -----------------------------------------
Magnitude (a.u.)       :      0.00000
Magnitude (Debye)      :      0.00000

                             ****ORCA TERMINATED NORMALLY****
TOTAL RUN TIME: 0 days 0 hours 0 minutes 3 seconds 479 msec
