                         Program Version 4.0.0.2 - RELEASE -
|  1> ! DLPNO-CCSD(T) cc-pVTZ cc-pVTZ/C cc-pVTZ/JK RIJCOSX TightSCF
|  2> * xyz 0 3
|  3> O  0.0  0.0  0.0
|  4> *
|  5>
|  6>                          ****END OF INPUT****

CARTESIAN COORDINATES (ANGSTROEM)
---------------------------------
  O      0.000000    0.000000    0.000000

 Total Charge           Charge          ....    0
 Multiplicity           Mult            ....    3
 Number of Electrons    NEL             ....    8
 Basis Dimension        Dim             ....   30

ORBITAL ENERGIES
----------------
                 SPIN UP ORBITALS
  NO   OCC          E(Eh)            E(eV)
   0   1.0000     -20.703141      -563.3611
   1   1.0000      -1.414300       -38.4851
   2   1.0000      -0.706060       -19.2129
   3   1.0000      -0.706060       -19.2129
   4   1.0000      -0.607055       -16.5188
   5   0.0000       0.697410        18.9775
   6   0.0000       0.697410        18.9775
   7   0.0000       0.742371        20.2009
   8   0.0000       0.885867        24.1057
   9   0.0000       1.611318        43.8462

                 SPIN DOWN ORBITALS
  NO   OCC          E(Eh)            E(eV)
   0   1.0000     -20.625372      -561.2449
   1   1.0000      -1.074014       -29.2254
   2   1.0000      -0.520009       -14.1502
   3   0.0000       0.112095         3.0503
   4   0.0000       0.112095         3.0503
   5   0.0000       0.772585        21.0231
   6   0.0000       0.871644        23.7186
   7   0.0000       0.871644        23.7186

MULLIKEN ATOMIC CHARGES AND SPIN POPULATIONS
--------------------------------------------
   0 O :   -0.000000    2.000000
Sum of atomic charges         :   -0.0000000

LOEWDIN ATOMIC CHARGES AND SPIN POPULATIONS
-------------------------------------------
   0 O :   -0.000000    2.000000

E(0)                                       ...    -74.805600530
E(0)                                       ...    -74.805600530
E(CORR)(strong-pairs)                      ...     -0.162366234
E(CORR)(weak-pairs)                        ...     -0.002450572
E(CORR)(corrected)                         ...     -0.164816807
E(TOT)                                     ...    -74.970417336
E(CCSD(T))                                 ...    -74.973208097
FINAL SINGLE POINT ENERGY       -74.973208096672

DIPOLE MOMENT
-------------
                                X             Y             Z
Electronic contribution:     -0.00000      -0.00000      -0.00000
Nuclear contribution   :      0.00000       0.00000       0.00000
                        -----------------------------------------
Total Dipole Moment    :     -0.00000      -0.00000      -0.00000
                        -----------------------------------------
Magnitude (a.u.)       :      0.00000
Magnitude (Debye)      :      0.00000

                             ****ORCA TERMINATED NORMALLY****
TOTAL RUN TIME: 0 days 0 hours 0 minutes 4 seconds 877 msec
