                         Program Version 4.0.0.2 - RELEASE -
|  1> ! DLPNO-CCSD(T) cc-pVTZ cc-pVTZ/C cc-pVTZ/JK RIJCOSX TightSCF
|  2> * xyz 0 4
|  3> P  0.0  0.0  0.0
|  4> *
|  5>
|  6>                          ****END OF INPUT****

CARTESIAN COORDINATES (ANGSTROEM)
---------------------------------
  P      0.000000    0.000000    0.000000

 Total Charge           Charge          ....    0
 Multiplicity           Mult            ....    4
 Number of Electrons    NEL             ....   15
 Basis Dimension        Dim             ....   34

ORBITAL ENERGIES
----------------
                 SPIN UP ORBITALS
  NO   OCC          E(Eh)            E(eV)
   0   1.0000     -79.978458     -2176.3245
   1   1.0000      -7.520769      -204.6505
   2   1.0000      -5.419521      -147.4727
   3   1.0000      -5.419521      -147.4727
   4   1.0000      -5.419521      -147.4727
   5   1.0000      -0.835378       -22.7318
   6   1.0000      -0.391362       -10.6495
   7   1.0000      -0.391362       -10.6495
   8   1.0000      -0.391362       -10.6495
   9   0.0000       0.370201        10.0737
  10   0.0000       0.386663        10.5216
  11   0.0000       0.386663        10.5216
  12   0.0000       0.386663        10.5216
  13   0.0000       0.562923        15.3179

                 SPIN DOWN ORBITALS
  NO   OCC          E(Eh)            E(eV)
   0   1.0000     -79.958586     -2175.7837
   1   1.0000      -7.498888      -204.0551
   2   1.0000      -5.379442      -146.3821
   3   1.0000      -5.379442      -146.3821
   4   1.0000      -5.379442      -146.3821
   5   1.0000      -0.555839       -15.1252
   6   0.0000       0.054423         1.4809
   7   0.0000       0.054423         1.4809
   8   0.0000       0.054423         1.4809
   9   0.0000       0.430461        11.7135
  10   0.0000       0.474926        12.9234

MULLIKEN ATOMIC CHARGES AND SPIN POPULATIONS
--------------------------------------------
   0 P :   -0.000000    3.000000
Sum of atomic charges         :   -0.0000000

LOEWDIN ATOMIC CHARGES AND SPIN POPULATIONS
-------------------------------------------
   0 P :    0.000000    3.000000

E(0)                                       ...   -340.715891121
E(0)                                       ...   -340.715891121
E(CORR)(strong-pairs)                      ...     -0.089437103
E(CORR)(weak-pairs)                        ...     -0.000756026
E(CORR)(corrected)                         ...     -0.090193129
E(TOT)                                     ...   -340.806084250
E(CCSD(T))                                 ...   -340.808775552
FINAL SINGLE POINT ENERGY      -340.808775552493

DIPOLE MOMENT
-------------
                                X             Y             Z
Electronic contribution:     -0.00000      -0.00000       0.00000
Nuclear contribution   :      0.00000       0.00000       0.00000
                        -----------------------------------------
Total Dipole Moment    :     -0.00000      -0.00000       0.00000
                        -----------------------------------------
Magnitude (a.u.)       :      0.00000
Magnitude (Debye)      :      0.00000

                             ****ORCA TERMINATED NORMALLY****
TOTAL RUN TIME: 0 days 0 hours 0 minutes 4 seconds 678 msec
