                         Program Version 4.0.0.2 - RELEASE -
|  1> ! DLPNO-CCSD(T) cc-pVTZ cc-pVTZ/C cc-pVTZ/JK RIJCOSX TightSCF
|  2> * xyz 0 3
|  3> S  0.0  0.0  0.0
|  4> *
|  5>
|  6>                          ****END OF INPUT****

CARTESIAN COORDINATES (ANGSTROEM)
---------------------------------
  S      0.000000    0.000000    0.000000

 Total Charge           Charge          ....    0
 Multiplicity           Mult            ....    3
 Number of Electrons    NEL             ....   16
 Basis Dimension        Dim             ....   34

ORBITAL ENERGIES
----------------
                 SPIN UP ORBITALS
  NO   OCC          E(Eh)            E(eV)
   0   1.0000     -92.010656     -2503.7372
   1   1.0000      -9.011003      -245.2019
   2   1.0000      -6.703384      -182.4083
   3   1.0000      -6.703382      -182.4083
   4   1.0000      -6.682730      -181.8463
   5   1.0000      -0.988231       -26.8911
   6   1.0000      -0.485325       -13.2064
   7   1.0000      -0.485325       -13.2064
   8   1.0000      -0.414402       -11.2765
   9   0.0000       0.394987        10.7481
  10   0.0000       0.394987        10.7481
  11   0.0000       0.427737        11.6393
  12   0.0000       0.463241        12.6054
  13   0.0000       0.463241        12.6054

                 SPIN DOWN ORBITALS
  NO   OCC          E(Eh)            E(eV)
   0   1.0000     -91.993065     -2503.2586
   1   1.0000      -8.992397      -244.6956
   2   1.0000      -6.673395      -181.5923
   3   1.0000      -6.657808      -181.1682
   4   1.0000      -6.657762      -181.1669
   5   1.0000      -0.773051       -21.0358
   6   1.0000      -0.378148       -10.2899
   7   0.0000       0.013517         0.3678
   8   0.0000       0.013519         0.3679
   9   0.0000       0.439275        11.9533
  10   0.0000       0.476591        12.9687
  11   0.0000       0.476592        12.9687

MULLIKEN ATOMIC CHARGES AND SPIN POPULATIONS
--------------------------------------------
   0 S :   -0.000000    2.000000
Sum of atomic charges         :   -0.0000000

LOEWDIN ATOMIC CHARGES AND SPIN POPULATIONS
-------------------------------------------
   0 S :   -0.000000    2.000000

E(0)                                       ...   -397.503421199
E(0)                                       ...   -397.503421199
E(CORR)(strong-pairs)                      ...     -0.143136113
E(CORR)(weak-pairs)                        ...     -0.002144305
E(CORR)(corrected)                         ...     -0.145280418
E(TOT)                                     ...   -397.648701617
E(CCSD(T))                                 ...   -397.653266413
FINAL SINGLE POINT ENERGY      -397.653266412924

DIPOLE MOMENT
-------------
                                X             Y             Z
Electronic contribution:     -0.00000       0.00000       0.00000
Nuclear contribution   :      0.00000       0.00000       0.00000
                        -----------------------------------------
Total Dipole Moment    :     -0.00000       0.00000       0.00000
                        -----------------------------------------
Magnitude (a.u.)       :      0.00000
Magnitude (Debye)      :      0.00000

                             ****ORCA TERMINATED NORMALLY****
TOTAL RUN TIME: 0 days 0 hours 0 minutes 8 seconds 767 msec
