                         Program Version 4.0.0.2 - RELEASE -
|  1> ! UKS pbe d3bj def2-TZVP TightSCF Grid4 RI def2/J RIJCOSX
|  2> * xyz 0 2
|  3> Br 0.0  0.0  0.0
|  4> *
|  5>
|  6>                          ****END OF INPUT****

CARTESIAN COORDINATES (ANGSTROEM)
---------------------------------
  Br     0.000000    0.000000    0.000000

 Total Charge           Charge          ....    0
 Multiplicity           Mult            ....    2
 Number of Electrons    NEL             ....   35
 Basis Dimension        Dim             ....   48

ORBITAL ENERGIES
----------------
                 SPIN UP ORBITALS
  NO   OCC          E(Eh)            E(eV)
   0   1.0000    -481.047213    -13089.9601
   1   1.0000     -61.851551     -1683.0663
   2   1.0000     -55.767314     -1517.5058
   3   1.0000     -55.761957     -1517.3600
   4   1.0000     -55.761957     -1517.3600
   5   1.0000      -8.446561      -229.8426
   6   1.0000      -6.330587      -172.2640
   7   1.0000      -6.309358      -171.6864
   8   1.0000      -6.309358      -171.6864
   9   1.0000      -2.531014       -68.8724
  10   1.0000      -2.525646       -68.7263
  11   1.0000      -2.525646       -68.7263
  12   1.0000      -2.509603       -68.2898
  13   1.0000      -2.509603       -68.2898
  14   1.0000      -0.726361       -19.7653
  15   1.0000      -0.333900        -9.0859
  16   1.0000      -0.286257        -7.7895
  17   1.0000      -0.286257        -7.7895
  18   0.0000       0.197119         5.3639
  19   0.0000       0.217922         5.9300
  20   0.0000       0.217922         5.9300
  21   0.0000       0.225237         6.1290
  22   0.0000       0.233042         6.3414

                 SPIN DOWN ORBITALS
  NO   OCC          E(Eh)            E(eV)
   0   1.0000    -481.045174    -13089.9047
   1   1.0000     -61.850492     -1683.0375
   2   1.0000     -55.763330     -1517.3973
   3   1.0000     -55.761069     -1517.3358
   4   1.0000     -55.761069     -1517.3358
   5   1.0000      -8.443722      -229.7654
   6   1.0000      -6.323823      -172.0800
   7   1.0000      -6.307939      -171.6478
   8   1.0000      -6.307939      -171.6478
   9   1.0000      -2.523399       -68.6652
  10   1.0000      -2.519997       -68.5726
  11   1.0000      -2.519997       -68.5726
  12   1.0000      -2.508830       -68.2687
  13   1.0000      -2.508830       -68.2687
  14   1.0000      -0.692607       -18.8468
  15   1.0000      -0.272971        -7.4279
  16   1.0000      -0.272971        -7.4279
  17   0.0000      -0.265463        -7.2236
  18   0.0000       0.223684         6.0867
  19   0.0000       0.223684         6.0867
  20   0.0000       0.227010         6.1773
  21   0.0000       0.264130         7.1873

MULLIKEN ATOMIC CHARGES AND SPIN POPULATIONS
--------------------------------------------
   0 Br:   -0.000000    1.000000
Sum of atomic charges         :   -0.0000000

LOEWDIN ATOMIC CHARGES AND SPIN POPULATIONS
-------------------------------------------
   0 Br:   -0.000000    1.000000

Dispersion correction           -0.000000000
FINAL SINGLE POINT ENERGY     -2573.720638812777

DIPOLE MOMENT
-------------
                                X             Y             Z
Electronic contribution:      0.00000      -0.00000      -0.00000
Nuclear contribution   :      0.00000       0.00000       0.00000
                        -----------------------------------------
Total Dipole Moment    :      0.00000      -0.00000      -0.00000
                        -----------------------------------------
Magnitude (a.u.)       :      0.00000
Magnitude (Debye)      :      0.00000

                             ****ORCA TERMINATED NORMALLY****
TOTAL RUN TIME: 0 days 0 hours 0 minutes 3 seconds 129 msec
