                         Program Version 4.0.0.2 - RELEASE -
|  1> ! UKS pbe d3bj def2-TZVP TightSCF Grid4 RI def2/J RIJCOSX
|  2> * xyz 0 3
|  3> C  0.0  0.0  0.0
|  4> *
|  5>
|  6>                          ****END OF INPUT****

CARTESIAN COORDINATES (ANGSTROEM)
---------------------------------
  C      0.000000    0.000000    0.000000

 Total Charge           Charge          ....    0
 Multiplicity           Mult            ....    3
 Number of Electrons    NEL             ....    6
 Basis Dimension        Dim             ....   31

ORBITAL ENERGIES
----------------
                 SPIN UP ORBITALS
  NO   OCC          E(Eh)            E(eV)
   0   1.0000     -10.023826      -272.7622
   1   1.0000      -0.528892       -14.3919
   2   1.0000      -0.222516        -6.0550
   3   1.0000      -0.222516        -6.0550
   4   0.0000      -0.203653        -5.5417
   5   0.0000       0.114905         3.1267
   6   0.0000       0.191536         5.2120
   7   0.0000       0.191536         5.2120
   8   0.0000       0.199939         5.4406

                 SPIN DOWN ORBITALS
  NO   OCC          E(Eh)            E(eV)
   0   1.0000      -9.996292      -272.0129
   1   1.0000      -0.435096       -11.8396
   2   0.0000      -0.169152        -4.6029
   3   0.0000      -0.111276        -3.0280
   4   0.0000      -0.111276        -3.0280
   5   0.0000       0.154552         4.2056
   6   0.0000       0.222067         6.0428

MULLIKEN ATOMIC CHARGES AND SPIN POPULATIONS
--------------------------------------------
   0 C :   -0.000000    2.000000
Sum of atomic charges         :   -0.0000000

LOEWDIN ATOMIC CHARGES AND SPIN POPULATIONS
-------------------------------------------
   0 C :    0.000000    2.000000

Dispersion correction           -0.000000000
FINAL SINGLE POINT ENERGY       -37.795991724169

DIPOLE MOMENT
-------------
                                X             Y             Z
Electronic contribution:     -0.00000       0.00000      -0.00000
Nuclear contribution   :      0.00000       0.00000       0.00000
                        -----------------------------------------
Total Dipole Moment    :     -0.00000       0.00000      -0.00000
                        -----------------------------------------
Magnitude (a.u.)       :      0.00000
Magnitude (Debye)      :      0.00000

                             ****ORCA TERMINATED NORMALLY****
TOTAL RUN TIME: 0 days 0 hours 0 minutes 1 seconds 819 msec
