                         Program Version 4.0.0.2 - RELEASE -
|  1> ! UKS pbe d3bj def2-TZVP TightSCF Grid4 RI def2/J RIJCOSX
|  2> * xyz 0 2
|  3> Cl 0.0  0.0  0.0
|  4> *
|  5>
|  6>                          ****END OF INPUT****

CARTESIAN COORDINATES (ANGSTROEM)
---------------------------------
  Cl     0.000000    0.000000    0.000000

 Total Charge           Charge          ....    0
 Multiplicity           Mult            ....    2
 Number of Electrons    NEL             ....   17
 Basis Dimension        Dim             ....   37

ORBITAL ENERGIES
----------------
                 SPIN UP ORBITALS
  NO   OCC          E(Eh)            E(eV)
   0   1.0000    -100.707925     -2740.4020
   1   1.0000      -9.218456      -250.8470
   2   1.0000      -7.051394      -191.8782
   3   1.0000      -7.029217      -191.2747
   4   1.0000      -7.029217      -191.2747
   5   1.0000      -0.768977       -20.9249
   6   1.0000      -0.365049        -9.9335
   7   1.0000      -0.310084        -8.4378
   8   1.0000      -0.310084        -8.4378
   9   0.0000       0.281919         7.6714
  10   0.0000       0.307592         8.3700
  11   0.0000       0.307592         8.3700
  12   0.0000       0.312070         8.4918
  13   0.0000       0.322863         8.7856

                 SPIN DOWN ORBITALS
  NO   OCC          E(Eh)            E(eV)
   0   1.0000    -100.701919     -2740.2385
   1   1.0000      -9.212912      -250.6961
   2   1.0000      -7.035031      -191.4329
   3   1.0000      -7.025701      -191.1791
   4   1.0000      -7.025701      -191.1791
   5   1.0000      -0.726372       -19.7656
   6   1.0000      -0.295414        -8.0386
   7   1.0000      -0.295414        -8.0386
   8   0.0000      -0.281278        -7.6540
   9   0.0000       0.314326         8.5533
  10   0.0000       0.314326         8.5533
  11   0.0000       0.320184         8.7127
  12   0.0000       0.366881         9.9833

MULLIKEN ATOMIC CHARGES AND SPIN POPULATIONS
--------------------------------------------
   0 Cl:   -0.000000    1.000000
Sum of atomic charges         :   -0.0000000

LOEWDIN ATOMIC CHARGES AND SPIN POPULATIONS
-------------------------------------------
   0 Cl:   -0.000000    1.000000

Dispersion correction           -0.000000000
FINAL SINGLE POINT ENERGY      -459.958484410528

DIPOLE MOMENT
-------------
                                X             Y             Z
Electronic contribution:     -0.00000       0.00000      -0.00000
Nuclear contribution   :      0.00000       0.00000       0.00000
                        -----------------------------------------
Total Dipole Moment    :     -0.00000       0.00000      -0.00000
                        -----------------------------------------
Magnitude (a.u.)       :      0.00000
Magnitude (Debye)      :      0.00000

                             ****ORCA TERMINATED NORMALLY****
TOTAL RUN TIME: 0 days 0 hours 0 minutes 1 seconds 963 msec
