                         Program Version 4.0.0.2 - RELEASE -
|  1> ! UKS pbe d3bj def2-TZVP TightSCF Grid4 RI def2/J RIJCOSX
|  2> * xyz 0 2
|  3> F  0.0  0.0  0.0
|  4> *
|  5>
|  6>                          ****END OF INPUT****

CARTESIAN COORDINATES (ANGSTROEM)
---------------------------------
  F      0.000000    0.000000    0.000000

 Total Charge           Charge          ....    0
 Multiplicity           Mult            ....    2
 Number of Electrons    NEL             ....    9
 Basis Dimension        Dim             ....   31

ORBITAL ENERGIES
----------------
                 SPIN UP ORBITALS
  NO   OCC          E(Eh)            E(eV)
   0   1.0000     -24.351219      -662.6303
   1   1.0000      -1.118858       -30.4457
   2   1.0000      -0.489864       -13.3299
   3   1.0000      -0.400363       -10.8944
   4   1.0000      -0.400363       -10.8944
   5   0.0000       0.408910        11.1270
   6   0.0000       0.440676        11.9914
   7   0.0000       0.473158        12.8753
   8   0.0000       0.473158        12.8753
   9   0.0000       1.786091        48.6020

                 SPIN DOWN ORBITALS
  NO   OCC          E(Eh)            E(eV)
   0   1.0000     -24.322608      -661.8518
   1   1.0000      -1.044984       -28.4355
   2   1.0000      -0.372569       -10.1381
   3   1.0000      -0.372568       -10.1381
   4   0.0000      -0.336353        -9.1526
   5   0.0000       0.432730        11.7752
   6   0.0000       0.483032        13.1440
   7   0.0000       0.483032        13.1440
   8   0.0000       0.497803        13.5459

MULLIKEN ATOMIC CHARGES AND SPIN POPULATIONS
--------------------------------------------
   0 F :   -0.000000    1.000000
Sum of atomic charges         :   -0.0000000

LOEWDIN ATOMIC CHARGES AND SPIN POPULATIONS
-------------------------------------------
   0 F :   -0.000000    1.000000

Dispersion correction           -0.000000000
FINAL SINGLE POINT ENERGY       -99.669152443703

DIPOLE MOMENT
-------------
                                X             Y             Z
Electronic contribution:     -0.00000       0.00000      -0.00000
Nuclear contribution   :      0.00000       0.00000       0.00000
                        -----------------------------------------
Total Dipole Moment    :     -0.00000       0.00000      -0.00000
                        -----------------------------------------
Magnitude (a.u.)       :      0.00000
Magnitude (Debye)      :      0.00000

                             ****ORCA TERMINATED NORMALLY****
TOTAL RUN TIME: 0 days 0 hours 0 minutes 1 seconds 802 msec
