                         Program Version 4.0.0.2 - RELEASE -
|  1> ! UKS pbe d3bj def2-TZVP TightSCF Grid4 RI def2/J RIJCOSX
|  2> * xyz 0 2
|  3> I  0.0  0.0  0.0
|  4> *
|  5>
|  6>                          ****END OF INPUT****

CARTESIAN COORDINATES (ANGSTROEM)
---------------------------------
  I      0.000000    0.000000    0.000000

 Total Charge           Charge          ....    0
 Multiplicity           Mult            ....    2
 Number of Electrons    NEL             ....   25
 Basis Dimension        Dim             ....   50

ORBITAL ENERGIES
----------------
                 SPIN UP ORBITALS
  NO   OCC          E(Eh)            E(eV)
   0   1.0000      -6.635972      -180.5740
   1   1.0000      -4.710669      -128.1838
   2   1.0000      -4.688662      -127.5850
   3   1.0000      -4.688662      -127.5850
   4   1.0000      -1.846400       -50.2431
   5   1.0000      -1.840397       -50.0797
   6   1.0000      -1.840397       -50.0797
   7   1.0000      -1.822568       -49.5946
   8   1.0000      -1.822568       -49.5946
   9   1.0000      -0.653281       -17.7767
  10   1.0000      -0.297570        -8.0973
  11   1.0000      -0.257587        -7.0093
  12   1.0000      -0.257587        -7.0093
  13   0.0000       0.129865         3.5338
  14   0.0000       0.146144         3.9768
  15   0.0000       0.146144         3.9768
  16   0.0000       0.150285         4.0895
  17   0.0000       0.157813         4.2943

                 SPIN DOWN ORBITALS
  NO   OCC          E(Eh)            E(eV)
   0   1.0000      -6.633333      -180.5022
   1   1.0000      -4.704759      -128.0230
   2   1.0000      -4.687596      -127.5560
   3   1.0000      -4.687596      -127.5560
   4   1.0000      -1.838238       -50.0210
   5   1.0000      -1.834448       -49.9179
   6   1.0000      -1.834448       -49.9179
   7   1.0000      -1.821901       -49.5764
   8   1.0000      -1.821901       -49.5764
   9   1.0000      -0.627075       -17.0636
  10   1.0000      -0.246224        -6.7001
  11   1.0000      -0.246224        -6.7001
  12   0.0000      -0.241522        -6.5722
  13   0.0000       0.150849         4.1048
  14   0.0000       0.150849         4.1048
  15   0.0000       0.153840         4.1862
  16   0.0000       0.185497         5.0476

MULLIKEN ATOMIC CHARGES AND SPIN POPULATIONS
--------------------------------------------
   0 I :   -0.000000    1.000000
Sum of atomic charges         :   -0.0000000

LOEWDIN ATOMIC CHARGES AND SPIN POPULATIONS
-------------------------------------------
   0 I :   -0.000000    1.000000

Dispersion correction           -0.000000000
FINAL SINGLE POINT ENERGY      -297.665519265149

DIPOLE MOMENT
-------------
                                X             Y             Z
Electronic contribution:     -0.00000       0.00000      -0.00000
Nuclear contribution   :      0.00000       0.00000       0.00000
                        -----------------------------------------
Total Dipole Moment    :     -0.00000       0.00000      -0.00000
                        -----------------------------------------
Magnitude (a.u.)       :      0.00000
Magnitude (Debye)      :      0.00000

                             ****ORCA TERMINATED NORMALLY****
TOTAL RUN TIME: 0 days 0 hours 0 minutes 4 seconds 517 msec
