                         Program Version 4.0.0.2 - RELEASE -
|  1> ! UKS pbe d3bj def2-TZVP TightSCF Grid4 RI def2/J RIJCOSX
|  2> * xyz 0 3
|  3> O  0.0  0.0  0.0
|  4> *
|  5>
|  6>                          ****END OF INPUT****

CARTESIAN COORDINATES (ANGSTROEM)
---------------------------------
  O      0.000000    0.000000    0.000000

 Total Charge           Charge          ....    0
 Multiplicity           Mult            ....    3
 Number of Electrons    NEL             ....    8
 Basis Dimension        Dim             ....   31

ORBITAL ENERGIES
----------------
                 SPIN UP ORBITALS
  NO   OCC          E(Eh)            E(eV)
   0   1.0000     -18.890939      -514.0486
   1   1.0000      -0.919338       -25.0165
   2   1.0000      -0.395642       -10.7660
   3   1.0000      -0.395642       -10.7660
   4   1.0000      -0.318695        -8.6721
   5   0.0000       0.286484         7.7956
   6   0.0000       0.348478         9.4826
   7   0.0000       0.348478         9.4826
   8   0.0000       0.377640        10.2761
   9   0.0000       1.299903        35.3722

                 SPIN DOWN ORBITALS
  NO   OCC          E(Eh)            E(eV)
   0   1.0000     -18.843471      -512.7569
   1   1.0000      -0.787169       -21.4200
   2   1.0000      -0.273886        -7.4528
   3   0.0000      -0.233571        -6.3558
   4   0.0000      -0.233571        -6.3558
   5   0.0000       0.331646         9.0245
   6   0.0000       0.395366        10.7585
   7   0.0000       0.415906        11.3174

MULLIKEN ATOMIC CHARGES AND SPIN POPULATIONS
--------------------------------------------
   0 O :   -0.000000    2.000000
Sum of atomic charges         :   -0.0000000

LOEWDIN ATOMIC CHARGES AND SPIN POPULATIONS
-------------------------------------------
   0 O :   -0.000000    2.000000

Dispersion correction           -0.000000000
FINAL SINGLE POINT ENERGY       -75.009696306665

DIPOLE MOMENT
-------------
                                X             Y             Z
Electronic contribution:     -0.00000       0.00000      -0.00000
Nuclear contribution   :      0.00000       0.00000       0.00000
                        -----------------------------------------
Total Dipole Moment    :     -0.00000       0.00000      -0.00000
                        -----------------------------------------
Magnitude (a.u.)       :      0.00000
Magnitude (Debye)      :      0.00000

                             ****ORCA TERMINATED NORMALLY****
TOTAL RUN TIME: 0 days 0 hours 0 minutes 1 seconds 813 msec
