                         Program Version 4.0.0.2 - RELEASE -
|  1> ! UKS pbe d3bj def2-TZVP TightSCF Grid4 RI def2/J RIJCOSX
|  2> * xyz 0 4
|  3> P  0.0  0.0  0.0
|  4> *
|  5>
|  6>                          ****END OF INPUT****

CARTESIAN COORDINATES (ANGSTROEM)
---------------------------------
  P      0.000000    0.000000    0.000000

 Total Charge           Charge          ....    0
 Multiplicity           Mult            ....    4
 Number of Electrons    NEL             ....   15
 Basis Dimension        Dim             ....   37

ORBITAL ENERGIES
----------------
                 SPIN UP ORBITALS
  NO   OCC          E(Eh)            E(eV)
   0   1.0000     -76.345387     -2077.4636
   1   1.0000      -6.342733      -172.5945
   2   1.0000      -4.560644      -124.1014
   3   1.0000      -4.560644      -124.1014
   4   1.0000      -4.560644      -124.1014
   5   1.0000      -0.539039       -14.6680
   6   1.0000      -0.229357        -6.2411
   7   1.0000      -0.229357        -6.2411
   8   1.0000      -0.229357        -6.2411
   9   0.0000       0.196776         5.3545
  10   0.0000       0.196776         5.3545
  11   0.0000       0.196776         5.3545
  12   0.0000       0.204113         5.5542
  13   0.0000       0.204113         5.5542

                 SPIN DOWN ORBITALS
  NO   OCC          E(Eh)            E(eV)
   0   1.0000     -76.334009     -2077.1540
   1   1.0000      -6.331359      -172.2850
   2   1.0000      -4.545132      -123.6793
   3   1.0000      -4.545132      -123.6793
   4   1.0000      -4.545132      -123.6793
   5   1.0000      -0.439152       -11.9499
   6   0.0000      -0.135216        -3.6794
   7   0.0000      -0.135216        -3.6794
   8   0.0000      -0.135216        -3.6794
   9   0.0000       0.254489         6.9250
  10   0.0000       0.254489         6.9250

MULLIKEN ATOMIC CHARGES AND SPIN POPULATIONS
--------------------------------------------
   0 P :   -0.000000    3.000000
Sum of atomic charges         :   -0.0000000

LOEWDIN ATOMIC CHARGES AND SPIN POPULATIONS
-------------------------------------------
   0 P :   -0.000000    3.000000

Dispersion correction           -0.000000000
FINAL SINGLE POINT ENERGY      -341.103050630790

DIPOLE MOMENT
-------------
                                X             Y             Z
Electronic contribution:      0.00000      -0.00000       0.00000
Nuclear contribution   :      0.00000       0.00000       0.00000
                        -----------------------------------------
Total Dipole Moment    :      0.00000      -0.00000       0.00000
                        -----------------------------------------
Magnitude (a.u.)       :      0.00000
Magnitude (Debye)      :      0.00000

                             ****ORCA TERMINATED NORMALLY****
TOTAL RUN TIME: 0 days 0 hours 0 minutes 1 seconds 848 msec
