                         Program Version 4.0.0.2 - RELEASE -
|  1> ! UKS pbe d3bj def2-TZVP TightSCF Grid4 RI def2/J RIJCOSX
|  2> * xyz 0 3
|  3> S  0.0  0.0  0.0
|  4> *
|  5>
|  6>                          ****END OF INPUT****

CARTESIAN COORDINATES (ANGSTROEM)
---------------------------------
  S      0.000000    0.000000    0.000000

 Total Charge           Charge          ....    0
 Multiplicity           Mult            ....    3
 Number of Electrons    NEL             ....   16
 Basis Dimension        Dim             ....   37

ORBITAL ENERGIES
----------------
                 SPIN UP ORBITALS
  NO   OCC          E(Eh)            E(eV)
   0   1.0000     -88.104256     -2397.4387
   1   1.0000      -7.725049      -210.2093
   2   1.0000      -5.751132      -156.4963
   3   1.0000      -5.751132      -156.4963
   4   1.0000      -5.732330      -155.9846
   5   1.0000      -0.655478       -17.8365
   6   1.0000      -0.296483        -8.0677
   7   1.0000      -0.296483        -8.0677
   8   1.0000      -0.248150        -6.7525
   9   0.0000       0.229347         6.2409
  10   0.0000       0.229347         6.2409
  11   0.0000       0.240628         6.5478
  12   0.0000       0.240628         6.5478
  13   0.0000       0.252234         6.8636

                 SPIN DOWN ORBITALS
  NO   OCC          E(Eh)            E(eV)
   0   1.0000     -88.094482     -2397.1727
   1   1.0000      -7.715633      -209.9530
   2   1.0000      -5.734449      -156.0423
   3   1.0000      -5.734449      -156.0423
   4   1.0000      -5.726557      -155.8275
   5   1.0000      -0.578767       -15.7490
   6   1.0000      -0.223164        -6.0726
   7   0.0000      -0.204719        -5.5707
   8   0.0000      -0.204718        -5.5707
   9   0.0000       0.264697         7.2028
  10   0.0000       0.276030         7.5111
  11   0.0000       0.276034         7.5113

MULLIKEN ATOMIC CHARGES AND SPIN POPULATIONS
--------------------------------------------
   0 S :   -0.000000    2.000000
Sum of atomic charges         :   -0.0000000

LOEWDIN ATOMIC CHARGES AND SPIN POPULATIONS
-------------------------------------------
   0 S :   -0.000000    2.000000

Dispersion correction           -0.000000000
FINAL SINGLE POINT ENERGY      -397.938405353056

DIPOLE MOMENT
-------------
                                X             Y             Z
Electronic contribution:     -0.00000       0.00000       0.00000
Nuclear contribution   :      0.00000       0.00000       0.00000
                        -----------------------------------------
Total Dipole Moment    :     -0.00000       0.00000       0.00000
                        -----------------------------------------
Magnitude (a.u.)       :      0.00000
Magnitude (Debye)      :      0.00000

                             ****ORCA TERMINATED NORMALLY****
TOTAL RUN TIME: 0 days 0 hours 0 minutes 1 seconds 977 msec
