                         Program Version 4.0.0.2 - RELEASE -
|  1> ! RI-MP2 RIJCOSX cc-pVTZ cc-pVTZ/C def2/J TIGHTSCF
|  2> * xyz 0 2
|  3> Br 0.0  0.0  0.0
|  4> *
|  5>
|  6>                          ****END OF INPUT****

CARTESIAN COORDINATES (ANGSTROEM)
---------------------------------
  Br     0.000000    0.000000    0.000000

 Total Charge           Charge          ....    0
 Multiplicity           Mult            ....    2
 Number of Electrons    NEL             ....   35
 Basis Dimension        Dim             ....   43

ORBITAL ENERGIES
----------------
                 SPIN UP ORBITALS
  NO   OCC          E(Eh)            E(eV)
   0   1.0000    -490.058443    -13335.1682
   1   1.0000     -65.198169     -1774.1324
   2   1.0000     -58.556968     -1593.4161
   3   1.0000     -58.551704     -1593.2729
   4   1.0000     -58.551704     -1593.2729
   5   1.0000      -9.873984      -268.6848
   6   1.0000      -7.497332      -204.0128
   7   1.0000      -7.473895      -203.3750
   8   1.0000      -7.473895      -203.3750
   9   1.0000      -3.231991       -87.9469
  10   1.0000      -3.226443       -87.7960
  11   1.0000      -3.226443       -87.7960
  12   1.0000      -3.209932       -87.3467
  13   1.0000      -3.209914       -87.3462
  14   1.0000      -1.047374       -28.5005
  15   1.0000      -0.523178       -14.2364
  16   1.0000      -0.453696       -12.3457
  17   1.0000      -0.453696       -12.3457
  18   0.0000       0.346203         9.4207
  19   0.0000       0.374444        10.1891
  20   0.0000       0.374444        10.1891
  21   0.0000       0.399946        10.8831
  22   0.0000       0.478569        13.0225

                 SPIN DOWN ORBITALS
  NO   OCC          E(Eh)            E(eV)
   0   1.0000    -490.054314    -13335.0558
   1   1.0000     -65.196063     -1774.0751
   2   1.0000     -58.550500     -1593.2401
   3   1.0000     -58.550500     -1593.2401
   4   1.0000     -58.545658     -1593.1084
   5   1.0000      -9.865927      -268.4655
   6   1.0000      -7.471848      -203.3193
   7   1.0000      -7.471848      -203.3193
   8   1.0000      -7.468535      -203.2292
   9   1.0000      -3.221509       -87.6617
  10   1.0000      -3.218458       -87.5787
  11   1.0000      -3.218458       -87.5787
  12   1.0000      -3.209491       -87.3347
  13   1.0000      -3.209473       -87.3342
  14   1.0000      -0.940495       -25.5922
  15   1.0000      -0.433419       -11.7939
  16   1.0000      -0.433419       -11.7939
  17   0.0000      -0.045772        -1.2455
  18   0.0000       0.379310        10.3216
  19   0.0000       0.379310        10.3216
  20   0.0000       0.404268        11.0007
  21   0.0000       0.419159        11.4059

MULLIKEN ATOMIC CHARGES AND SPIN POPULATIONS
--------------------------------------------
   0 Br:   -0.000000    1.000000
Sum of atomic charges         :   -0.0000000

LOEWDIN ATOMIC CHARGES AND SPIN POPULATIONS
-------------------------------------------
   0 Br:   -0.000000    1.000000

MP2 TOTAL ENERGY:    -2572.639795660 Eh
FINAL SINGLE POINT ENERGY     -2572.639795660191

DIPOLE MOMENT
-------------
                                X             Y             Z
Electronic contribution:     -0.00000      -0.00000      -0.00000
Nuclear contribution   :      0.00000       0.00000       0.00000
                        -----------------------------------------
Total Dipole Moment    :     -0.00000      -0.00000      -0.00000
                        -----------------------------------------
Magnitude (a.u.)       :      0.00000
Magnitude (Debye)      :      0.00000

                             ****ORCA TERMINATED NORMALLY****
TOTAL RUN TIME: 0 days 0 hours 0 minutes 10 seconds 954 msec
