                         Program Version 4.0.0.2 - RELEASE -
|  1> ! RI-MP2 RIJCOSX cc-pVTZ cc-pVTZ/C def2/J TIGHTSCF
|  2> * xyz 0 3
|  3> C  0.0  0.0  0.0
|  4> *
|  5>
|  6>                          ****END OF INPUT****

CARTESIAN COORDINATES (ANGSTROEM)
---------------------------------
  C      0.000000    0.000000    0.000000

 Total Charge           Charge          ....    0
 Multiplicity           Mult            ....    3
 Number of Electrons    NEL             ....    6
 Basis Dimension        Dim             ....   30

ORBITAL ENERGIES
----------------
                 SPIN UP ORBITALS
  NO   OCC          E(Eh)            E(eV)
   0   1.0000     -11.344404      -308.6969
   1   1.0000      -0.828128       -22.5345
   2   1.0000      -0.437709       -11.9107
   3   1.0000      -0.437709       -11.9107
   4   0.0000       0.035282         0.9601
   5   0.0000       0.423509        11.5243
   6   0.0000       0.423509        11.5243
   7   0.0000       0.488760        13.2998
   8   0.0000       0.495852        13.4928

                 SPIN DOWN ORBITALS
  NO   OCC          E(Eh)            E(eV)
   0   1.0000     -11.299587      -307.4774
   1   1.0000      -0.583435       -15.8761
   2   0.0000       0.068675         1.8688
   3   0.0000       0.122004         3.3199
   4   0.0000       0.122004         3.3199
   5   0.0000       0.515658        14.0318
   6   0.0000       0.557318        15.1654

MULLIKEN ATOMIC CHARGES AND SPIN POPULATIONS
--------------------------------------------
   0 C :    0.000000    2.000000
Sum of atomic charges         :    0.0000000

LOEWDIN ATOMIC CHARGES AND SPIN POPULATIONS
-------------------------------------------
   0 C :    0.000000    2.000000

MP2 TOTAL ENERGY:      -37.758483256 Eh
FINAL SINGLE POINT ENERGY       -37.758483255557

DIPOLE MOMENT
-------------
                                X             Y             Z
Electronic contribution:      0.00000      -0.00000      -0.00000
Nuclear contribution   :      0.00000       0.00000       0.00000
                        -----------------------------------------
Total Dipole Moment    :      0.00000      -0.00000      -0.00000
                        -----------------------------------------
Magnitude (a.u.)       :      0.00000
Magnitude (Debye)      :      0.00000

                             ****ORCA TERMINATED NORMALLY****
TOTAL RUN TIME: 0 days 0 hours 0 minutes 2 seconds 871 msec
