                         Program Version 4.0.0.2 - RELEASE -
|  1> ! RI-MP2 RIJCOSX cc-pVTZ cc-pVTZ/C def2/J TIGHTSCF
|  2> * xyz 0 2
|  3> Cl 0.0  0.0  0.0
|  4> *
|  5>
|  6>                          ****END OF INPUT****

CARTESIAN COORDINATES (ANGSTROEM)
---------------------------------
  Cl     0.000000    0.000000    0.000000

 Total Charge           Charge          ....    0
 Multiplicity           Mult            ....    2
 Number of Electrons    NEL             ....   17
 Basis Dimension        Dim             ....   34

ORBITAL ENERGIES
----------------
                 SPIN UP ORBITALS
  NO   OCC          E(Eh)            E(eV)
   0   1.0000    -104.887332     -2854.1294
   1   1.0000     -10.610756      -288.7333
   2   1.0000      -8.095554      -220.2912
   3   1.0000      -8.071862      -219.6465
   4   1.0000      -8.071859      -219.6465
   5   1.0000      -1.134790       -30.8792
   6   1.0000      -0.580058       -15.7842
   7   1.0000      -0.501480       -13.6460
   8   1.0000      -0.501480       -13.6460
   9   0.0000       0.446088        12.1387
  10   0.0000       0.479660        13.0522
  11   0.0000       0.479660        13.0522
  12   0.0000       0.578272        15.7356
  13   0.0000       0.584338        15.9007

                 SPIN DOWN ORBITALS
  NO   OCC          E(Eh)            E(eV)
   0   1.0000    -104.876264     -2853.8282
   1   1.0000     -10.599536      -288.4280
   2   1.0000      -8.066206      -219.4926
   3   1.0000      -8.066103      -219.4898
   4   1.0000      -8.046508      -218.9566
   5   1.0000      -1.013457       -27.5776
   6   1.0000      -0.479645       -13.0518
   7   1.0000      -0.479635       -13.0515
   8   0.0000      -0.034558        -0.9404
   9   0.0000       0.485722        13.2172
  10   0.0000       0.485726        13.2173
  11   0.0000       0.522250        14.2111
  12   0.0000       0.602803        16.4031

MULLIKEN ATOMIC CHARGES AND SPIN POPULATIONS
--------------------------------------------
   0 Cl:   -0.000000    1.000000
Sum of atomic charges         :   -0.0000000

LOEWDIN ATOMIC CHARGES AND SPIN POPULATIONS
-------------------------------------------
   0 Cl:   -0.000000    1.000000

MP2 TOTAL ENERGY:     -459.643676669 Eh
FINAL SINGLE POINT ENERGY      -459.643676668647

DIPOLE MOMENT
-------------
                                X             Y             Z
Electronic contribution:      0.00000      -0.00000       0.00000
Nuclear contribution   :      0.00000       0.00000       0.00000
                        -----------------------------------------
Total Dipole Moment    :      0.00000      -0.00000       0.00000
                        -----------------------------------------
Magnitude (a.u.)       :      0.00000
Magnitude (Debye)      :      0.00000

                             ****ORCA TERMINATED NORMALLY****
TOTAL RUN TIME: 0 days 0 hours 0 minutes 6 seconds 25 msec
