                         Program Version 4.0.0.2 - RELEASE -
|  1> ! RI-MP2 RIJCOSX cc-pVTZ cc-pVTZ/C def2/J TIGHTSCF
|  2> * xyz 0 2
|  3> F  0.0  0.0  0.0
|  4> *
|  5>
|  6>                          ****END OF INPUT****

CARTESIAN COORDINATES (ANGSTROEM)
---------------------------------
  F      0.000000    0.000000    0.000000

 Total Charge           Charge          ....    0
 Multiplicity           Mult            ....    2
 Number of Electrons    NEL             ....    9
 Basis Dimension        Dim             ....   30

ORBITAL ENERGIES
----------------
                 SPIN UP ORBITALS
  NO   OCC          E(Eh)            E(eV)
   0   1.0000     -26.402603      -718.4514
   1   1.0000      -1.668763       -45.4093
   2   1.0000      -0.839723       -22.8500
   3   1.0000      -0.726955       -19.7814
   4   1.0000      -0.726955       -19.7814
   5   0.0000       0.854142        23.2424
   6   0.0000       0.903512        24.5858
   7   0.0000       0.903512        24.5858
   8   0.0000       1.132695        30.8222
   9   0.0000       2.151061        58.5333

                 SPIN DOWN ORBITALS
  NO   OCC          E(Eh)            E(eV)
   0   1.0000     -26.355019      -717.1565
   1   1.0000      -1.474643       -40.1271
   2   1.0000      -0.676361       -18.4047
   3   1.0000      -0.676361       -18.4047
   4   0.0000       0.069003         1.8777
   5   0.0000       0.919524        25.0215
   6   0.0000       0.919524        25.0215
   7   0.0000       1.024629        27.8816
   8   0.0000       1.178407        32.0661

MULLIKEN ATOMIC CHARGES AND SPIN POPULATIONS
--------------------------------------------
   0 F :   -0.000000    1.000000
Sum of atomic charges         :   -0.0000000

LOEWDIN ATOMIC CHARGES AND SPIN POPULATIONS
-------------------------------------------
   0 F :   -0.000000    1.000000

MP2 TOTAL ENERGY:      -99.605426119 Eh
FINAL SINGLE POINT ENERGY       -99.605426118592

DIPOLE MOMENT
-------------
                                X             Y             Z
Electronic contribution:      0.00000       0.00000       0.00000
Nuclear contribution   :      0.00000       0.00000       0.00000
                        -----------------------------------------
Total Dipole Moment    :      0.00000       0.00000       0.00000
                        -----------------------------------------
Magnitude (a.u.)       :      0.00000
Magnitude (Debye)      :      0.00000

                             ****ORCA TERMINATED NORMALLY****
TOTAL RUN TIME: 0 days 0 hours 0 minutes 2 seconds 797 msec
