                         Program Version 4.0.0.2 - RELEASE -
|  1> ! RI-MP2 RIJCOSX cc-pVTZ cc-pVTZ/C def2/J TIGHTSCF
|  2> * xyz 0 4
|  3> N  0.0  0.0  0.0
|  4> *
|  5>
|  6>                          ****END OF INPUT****

CARTESIAN COORDINATES (ANGSTROEM)
---------------------------------
  N      0.000000    0.000000    0.000000

 Total Charge           Charge          ....    0
 Multiplicity           Mult            ....    4
 Number of Electrons    NEL             ....    7
 Basis Dimension        Dim             ....   30

ORBITAL ENERGIES
----------------
                 SPIN UP ORBITALS
  NO   OCC          E(Eh)            E(eV)
   0   1.0000     -15.668859      -426.3713
   1   1.0000      -1.161128       -31.5959
   2   1.0000      -0.568679       -15.4745
   3   1.0000      -0.568679       -15.4745
   4   1.0000      -0.568679       -15.4745
   5   0.0000       0.584545        15.9063
   6   0.0000       0.584545        15.9063
   7   0.0000       0.584545        15.9063
   8   0.0000       0.663635        18.0584
   9   0.0000       1.378467        37.5100

                 SPIN DOWN ORBITALS
  NO   OCC          E(Eh)            E(eV)
   0   1.0000     -15.579497      -423.9397
   1   1.0000      -0.725666       -19.7464
   2   0.0000       0.143604         3.9077
   3   0.0000       0.143604         3.9077
   4   0.0000       0.143604         3.9077
   5   0.0000       0.761205        20.7134
   6   0.0000       0.761205        20.7134

MULLIKEN ATOMIC CHARGES AND SPIN POPULATIONS
--------------------------------------------
   0 N :   -0.000000    3.000000
Sum of atomic charges         :   -0.0000000

LOEWDIN ATOMIC CHARGES AND SPIN POPULATIONS
-------------------------------------------
   0 N :    0.000000    3.000000

MP2 TOTAL ENERGY:      -54.492214786 Eh
FINAL SINGLE POINT ENERGY       -54.492214786258

DIPOLE MOMENT
-------------
                                X             Y             Z
Electronic contribution:     -0.00000       0.00000       0.00000
Nuclear contribution   :      0.00000       0.00000       0.00000
                        -----------------------------------------
Total Dipole Moment    :     -0.00000       0.00000       0.00000
                        -----------------------------------------
Magnitude (a.u.)       :      0.00000
Magnitude (Debye)      :      0.00000

                             ****ORCA TERMINATED NORMALLY****
TOTAL RUN TIME: 0 days 0 hours 0 minutes 2 seconds 237 msec
