                         Program Version 4.0.0.2 - RELEASE -
|  1> ! RI-MP2 RIJCOSX cc-pVTZ cc-pVTZ/C def2/J TIGHTSCF
|  2> * xyz 0 3
|  3> O  0.0  0.0  0.0
|  4> *
|  5>
|  6>                          ****END OF INPUT****

CARTESIAN COORDINATES (ANGSTROEM)
---------------------------------
  O      0.000000    0.000000    0.000000

 Total Charge           Charge          ....    0
 Multiplicity           Mult            ....    3
 Number of Electrons    NEL             ....    8
 Basis Dimension        Dim             ....   30

ORBITAL ENERGIES
----------------
                 SPIN UP ORBITALS
  NO   OCC          E(Eh)            E(eV)
   0   1.0000     -20.703094      -563.3598
   1   1.0000      -1.414311       -38.4854
   2   1.0000      -0.706055       -19.2127
   3   1.0000      -0.706055       -19.2127
   4   1.0000      -0.607056       -16.5188
   5   0.0000       0.697399        18.9772
   6   0.0000       0.697399        18.9772
   7   0.0000       0.742368        20.2009
   8   0.0000       0.885909        24.1068
   9   0.0000       1.611330        43.8465

                 SPIN DOWN ORBITALS
  NO   OCC          E(Eh)            E(eV)
   0   1.0000     -20.625328      -561.2437
   1   1.0000      -1.074020       -29.2256
   2   1.0000      -0.520010       -14.1502
   3   0.0000       0.112104         3.0505
   4   0.0000       0.112104         3.0505
   5   0.0000       0.772583        21.0230
   6   0.0000       0.871624        23.7181
   7   0.0000       0.871624        23.7181

MULLIKEN ATOMIC CHARGES AND SPIN POPULATIONS
--------------------------------------------
   0 O :    0.000000    2.000000
Sum of atomic charges         :    0.0000000

LOEWDIN ATOMIC CHARGES AND SPIN POPULATIONS
-------------------------------------------
   0 O :    0.000000    2.000000

MP2 TOTAL ENERGY:      -74.954928190 Eh
FINAL SINGLE POINT ENERGY       -74.954928190478

DIPOLE MOMENT
-------------
                                X             Y             Z
Electronic contribution:     -0.00000      -0.00000      -0.00000
Nuclear contribution   :      0.00000       0.00000       0.00000
                        -----------------------------------------
Total Dipole Moment    :     -0.00000      -0.00000      -0.00000
                        -----------------------------------------
Magnitude (a.u.)       :      0.00000
Magnitude (Debye)      :      0.00000

                             ****ORCA TERMINATED NORMALLY****
TOTAL RUN TIME: 0 days 0 hours 0 minutes 3 seconds 361 msec
