                         Program Version 4.0.0.2 - RELEASE -
|  1> ! RI-MP2 RIJCOSX cc-pVTZ cc-pVTZ/C def2/J TIGHTSCF
|  2> * xyz 0 4
|  3> P  0.0  0.0  0.0
|  4> *
|  5>
|  6>                          ****END OF INPUT****

CARTESIAN COORDINATES (ANGSTROEM)
---------------------------------
  P      0.000000    0.000000    0.000000

 Total Charge           Charge          ....    0
 Multiplicity           Mult            ....    4
 Number of Electrons    NEL             ....   15
 Basis Dimension        Dim             ....   34

ORBITAL ENERGIES
----------------
                 SPIN UP ORBITALS
  NO   OCC          E(Eh)            E(eV)
   0   1.0000     -79.978450     -2176.3243
   1   1.0000      -7.520763      -204.6504
   2   1.0000      -5.419516      -147.4725
   3   1.0000      -5.419516      -147.4725
   4   1.0000      -5.419516      -147.4725
   5   1.0000      -0.835377       -22.7318
   6   1.0000      -0.391359       -10.6494
   7   1.0000      -0.391359       -10.6494
   8   1.0000      -0.391359       -10.6494
   9   0.0000       0.370199        10.0736
  10   0.0000       0.386683        10.5222
  11   0.0000       0.386683        10.5222
  12   0.0000       0.386683        10.5222
  13   0.0000       0.562922        15.3179

                 SPIN DOWN ORBITALS
  NO   OCC          E(Eh)            E(eV)
   0   1.0000     -79.958578     -2175.7835
   1   1.0000      -7.498882      -204.0550
   2   1.0000      -5.379437      -146.3819
   3   1.0000      -5.379437      -146.3819
   4   1.0000      -5.379437      -146.3819
   5   1.0000      -0.555835       -15.1250
   6   0.0000       0.054429         1.4811
   7   0.0000       0.054429         1.4811
   8   0.0000       0.054429         1.4811
   9   0.0000       0.430459        11.7134
  10   0.0000       0.474944        12.9239

MULLIKEN ATOMIC CHARGES AND SPIN POPULATIONS
--------------------------------------------
   0 P :   -0.000000    3.000000
Sum of atomic charges         :   -0.0000000

LOEWDIN ATOMIC CHARGES AND SPIN POPULATIONS
-------------------------------------------
   0 P :   -0.000000    3.000000

MP2 TOTAL ENERGY:     -340.791710644 Eh
FINAL SINGLE POINT ENERGY      -340.791710643617

DIPOLE MOMENT
-------------
                                X             Y             Z
Electronic contribution:     -0.00000      -0.00000       0.00000
Nuclear contribution   :      0.00000       0.00000       0.00000
                        -----------------------------------------
Total Dipole Moment    :     -0.00000      -0.00000       0.00000
                        -----------------------------------------
Magnitude (a.u.)       :      0.00000
Magnitude (Debye)      :      0.00000

                             ****ORCA TERMINATED NORMALLY****
TOTAL RUN TIME: 0 days 0 hours 0 minutes 3 seconds 130 msec
