                         Program Version 4.0.0.2 - RELEASE -
|  1> ! RI-MP2 RIJCOSX cc-pVTZ cc-pVTZ/C def2/J TIGHTSCF
|  2> * xyz 0 3
|  3> S  0.0  0.0  0.0
|  4> *
|  5>
|  6>                          ****END OF INPUT****

CARTESIAN COORDINATES (ANGSTROEM)
---------------------------------
  S      0.000000    0.000000    0.000000

 Total Charge           Charge          ....    0
 Multiplicity           Mult            ....    3
 Number of Electrons    NEL             ....   16
 Basis Dimension        Dim             ....   34

ORBITAL ENERGIES
----------------
                 SPIN UP ORBITALS
  NO   OCC          E(Eh)            E(eV)
   0   1.0000     -92.010605     -2503.7358
   1   1.0000      -9.010970      -245.2009
   2   1.0000      -6.703347      -182.4073
   3   1.0000      -6.703346      -182.4073
   4   1.0000      -6.682689      -181.8452
   5   1.0000      -0.988189       -26.8900
   6   1.0000      -0.485255       -13.2045
   7   1.0000      -0.485255       -13.2045
   8   1.0000      -0.414451       -11.2778
   9   0.0000       0.395046        10.7498
  10   0.0000       0.395046        10.7498
  11   0.0000       0.427629        11.6364
  12   0.0000       0.463242        12.6055
  13   0.0000       0.463242        12.6055

                 SPIN DOWN ORBITALS
  NO   OCC          E(Eh)            E(eV)
   0   1.0000     -91.993017     -2503.2573
   1   1.0000      -8.992368      -244.6948
   2   1.0000      -6.673358      -181.5913
   3   1.0000      -6.657779      -181.1674
   4   1.0000      -6.657733      -181.1661
   5   1.0000      -0.773052       -21.0358
   6   1.0000      -0.378203       -10.2914
   7   0.0000       0.013542         0.3685
   8   0.0000       0.013544         0.3686
   9   0.0000       0.439156        11.9500
  10   0.0000       0.476661        12.9706
  11   0.0000       0.476663        12.9707

MULLIKEN ATOMIC CHARGES AND SPIN POPULATIONS
--------------------------------------------
   0 S :   -0.000000    2.000000
Sum of atomic charges         :   -0.0000000

LOEWDIN ATOMIC CHARGES AND SPIN POPULATIONS
-------------------------------------------
   0 S :   -0.000000    2.000000

MP2 TOTAL ENERGY:     -397.625697739 Eh
FINAL SINGLE POINT ENERGY      -397.625697738537

DIPOLE MOMENT
-------------
                                X             Y             Z
Electronic contribution:     -0.00000      -0.00000      -0.00000
Nuclear contribution   :      0.00000       0.00000       0.00000
                        -----------------------------------------
Total Dipole Moment    :     -0.00000      -0.00000      -0.00000
                        -----------------------------------------
Magnitude (a.u.)       :      0.00000
Magnitude (Debye)      :      0.00000

                             ****ORCA TERMINATED NORMALLY****
TOTAL RUN TIME: 0 days 0 hours 0 minutes 5 seconds 141 msec
