                         Program Version 3.0.2 -  RELEASE  -
|  1> ! UKS B3LYP d3bj def2-SVP TightSCF Grid4 RI def2-SVP/J RIJCOSX
|  2> * xyz 0 2
|  3> Br 0.0  0.0  0.0
|  4> *
|  5>
|  6>                          ****END OF INPUT****

CARTESIAN COORDINATES (ANGSTROEM)
---------------------------------
  Br     0.000000    0.000000    0.000000

 Total Charge           Charge          ....    0
 Multiplicity           Mult            ....    2
 Number of Electrons    NEL             ....   35
 Basis Dimension        Dim             ....   32

ORBITAL ENERGIES
----------------
                 SPIN UP ORBITALS
  NO   OCC          E(Eh)            E(eV)
   0   1.0000    -482.815910    -13138.0888
   1   1.0000     -62.499158     -1700.6885
   2   1.0000     -56.333326     -1532.9077
   3   1.0000     -56.328361     -1532.7726
   4   1.0000     -56.328361     -1532.7726
   5   1.0000      -8.717510      -237.2155
   6   1.0000      -6.558082      -178.4545
   7   1.0000      -6.534891      -177.8234
   8   1.0000      -6.534891      -177.8234
   9   1.0000      -2.669359       -72.6369
  10   1.0000      -2.663670       -72.4821
  11   1.0000      -2.663667       -72.4821
  12   1.0000      -2.646644       -72.0189
  13   1.0000      -2.646642       -72.0188
  14   1.0000      -0.784299       -21.3419
  15   1.0000      -0.361544        -9.8381
  16   1.0000      -0.312325        -8.4988
  17   1.0000      -0.312325        -8.4988
  18   0.0000       0.280391         7.6298
  19   0.0000       0.475626        12.9424
  20   0.0000       0.486252        13.2316
  21   0.0000       0.486252        13.2316
  22   0.0000       0.521894        14.2015

                 SPIN DOWN ORBITALS
  NO   OCC          E(Eh)            E(eV)
   0   1.0000    -482.813275    -13138.0171
   1   1.0000     -62.497770     -1700.6508
   2   1.0000     -56.327737     -1532.7556
   3   1.0000     -56.327351     -1532.7451
   4   1.0000     -56.327350     -1532.7451
   5   1.0000      -8.713569      -237.1083
   6   1.0000      -6.547210      -178.1586
   7   1.0000      -6.533137      -177.7757
   8   1.0000      -6.533137      -177.7757
   9   1.0000      -2.661544       -72.4243
  10   1.0000      -2.657680       -72.3191
  11   1.0000      -2.657677       -72.3191
  12   1.0000      -2.645664       -71.9922
  13   1.0000      -2.645662       -71.9921
  14   1.0000      -0.740700       -20.1555
  15   1.0000      -0.298431        -8.1207
  16   1.0000      -0.298431        -8.1207
  17   0.0000      -0.224664        -6.1134
  18   0.0000       0.293379         7.9833
  19   0.0000       0.528820        14.3899
  20   0.0000       0.528820        14.3899
  21   0.0000       0.530416        14.4334

MULLIKEN ATOMIC CHARGES AND SPIN POPULATIONS
--------------------------------------------
   0 Br:   -0.000000    1.000000
Sum of atomic charges         :   -0.0000000

LOEWDIN ATOMIC CHARGES AND SPIN POPULATIONS
-------------------------------------------
   0 Br:    0.000000    1.000000

Dispersion correction           -0.000000000
FINAL SINGLE POINT ENERGY     -2573.686833420785

DIPOLE MOMENT
-------------
                                X             Y             Z
Electronic contribution:     -0.00000      -0.00000      -0.00000
Nuclear contribution   :      0.00000       0.00000       0.00000
                        -----------------------------------------
Total Dipole Moment    :     -0.00000      -0.00000      -0.00000
                        -----------------------------------------
Magnitude (a.u.)       :      0.00000
Magnitude (Debye)      :      0.00000

                             ****ORCA TERMINATED NORMALLY****
TOTAL RUN TIME: 0 days 0 hours 0 minutes 5 seconds 687 msec
