                         Program Version 3.0.2 -  RELEASE  -
|  1> ! UKS B3LYP d3bj def2-SVP TightSCF Grid4 RI def2-SVP/J RIJCOSX
|  2> * xyz 0 2
|  3> Cl 0.0  0.0  0.0
|  4> *
|  5>
|  6>                          ****END OF INPUT****

CARTESIAN COORDINATES (ANGSTROEM)
---------------------------------
  Cl     0.000000    0.000000    0.000000

 Total Charge           Charge          ....    0
 Multiplicity           Mult            ....    2
 Number of Electrons    NEL             ....   17
 Basis Dimension        Dim             ....   18

ORBITAL ENERGIES
----------------
                 SPIN UP ORBITALS
  NO   OCC          E(Eh)            E(eV)
   0   1.0000    -101.535140     -2762.9116
   1   1.0000      -9.486449      -258.1394
   2   1.0000      -7.265960      -197.7168
   3   1.0000      -7.243165      -197.0965
   4   1.0000      -7.243164      -197.0965
   5   1.0000      -0.825872       -22.4731
   6   1.0000      -0.391350       -10.6492
   7   1.0000      -0.335190        -9.1210
   8   1.0000      -0.335190        -9.1210
   9   0.0000       0.425123        11.5682
  10   0.0000       0.707741        19.2586
  11   0.0000       0.721171        19.6240
  12   0.0000       0.721171        19.6240
  13   0.0000       0.766591        20.8600

                 SPIN DOWN ORBITALS
  NO   OCC          E(Eh)            E(eV)
   0   1.0000    -101.528470     -2762.7301
   1   1.0000      -9.480111      -257.9669
   2   1.0000      -7.244610      -197.1359
   3   1.0000      -7.239366      -196.9932
   4   1.0000      -7.239365      -196.9931
   5   1.0000      -0.772446       -21.0193
   6   1.0000      -0.319039        -8.6815
   7   1.0000      -0.319039        -8.6815
   8   0.0000      -0.227101        -6.1797
   9   0.0000       0.443940        12.0802
  10   0.0000       0.774944        21.0873
  11   0.0000       0.774944        21.0873
  12   0.0000       0.780525        21.2392

MULLIKEN ATOMIC CHARGES AND SPIN POPULATIONS
--------------------------------------------
   0 Cl:    0.000000    1.000000
Sum of atomic charges         :    0.0000000

LOEWDIN ATOMIC CHARGES AND SPIN POPULATIONS
-------------------------------------------
   0 Cl:    0.000000    1.000000

Dispersion correction           -0.000000000
FINAL SINGLE POINT ENERGY      -459.940825896724

DIPOLE MOMENT
-------------
                                X             Y             Z
Electronic contribution:     -0.00000       0.00000      -0.00000
Nuclear contribution   :      0.00000       0.00000       0.00000
                        -----------------------------------------
Total Dipole Moment    :     -0.00000       0.00000      -0.00000
                        -----------------------------------------
Magnitude (a.u.)       :      0.00000
Magnitude (Debye)      :      0.00000

                             ****ORCA TERMINATED NORMALLY****
TOTAL RUN TIME: 0 days 0 hours 0 minutes 3 seconds 512 msec
