                         Program Version 3.0.2 -  RELEASE  -
|  1> ! UKS B3LYP d3bj def2-SVP TightSCF Grid4 RI def2-SVP/J RIJCOSX
|  2> * xyz 0 2
|  3> F  0.0  0.0  0.0
|  4> *
|  5>
|  6>                          ****END OF INPUT****

CARTESIAN COORDINATES (ANGSTROEM)
---------------------------------
  F      0.000000    0.000000    0.000000

 Total Charge           Charge          ....    0
 Multiplicity           Mult            ....    2
 Number of Electrons    NEL             ....    9
 Basis Dimension        Dim             ....   14

ORBITAL ENERGIES
----------------
                 SPIN UP ORBITALS
  NO   OCC          E(Eh)            E(eV)
   0   1.0000     -24.767797      -673.9660
   1   1.0000      -1.184152       -32.2224
   2   1.0000      -0.540550       -14.7091
   3   1.0000      -0.450814       -12.2673
   4   1.0000      -0.450814       -12.2673
   5   0.0000       1.011081        27.5129
   6   0.0000       1.040827        28.3223
   7   0.0000       1.096285        29.8314
   8   0.0000       1.096285        29.8314
   9   0.0000       2.956241        80.4434

                 SPIN DOWN ORBITALS
  NO   OCC          E(Eh)            E(eV)
   0   1.0000     -24.736384      -673.1112
   1   1.0000      -1.093579       -29.7578
   2   1.0000      -0.418921       -11.3994
   3   1.0000      -0.418921       -11.3994
   4   0.0000      -0.244151        -6.6437
   5   0.0000       1.051453        28.6115
   6   0.0000       1.114471        30.3263
   7   0.0000       1.114471        30.3263
   8   0.0000       1.153077        31.3768

MULLIKEN ATOMIC CHARGES AND SPIN POPULATIONS
--------------------------------------------
   0 F :    0.000000    1.000000
Sum of atomic charges         :    0.0000000

LOEWDIN ATOMIC CHARGES AND SPIN POPULATIONS
-------------------------------------------
   0 F :    0.000000    1.000000

Dispersion correction           -0.000000000
FINAL SINGLE POINT ENERGY       -99.606601941762

DIPOLE MOMENT
-------------
                                X             Y             Z
Electronic contribution:     -0.00000      -0.00000      -0.00000
Nuclear contribution   :      0.00000       0.00000       0.00000
                        -----------------------------------------
Total Dipole Moment    :     -0.00000      -0.00000      -0.00000
                        -----------------------------------------
Magnitude (a.u.)       :      0.00000
Magnitude (Debye)      :      0.00000

                             ****ORCA TERMINATED NORMALLY****
TOTAL RUN TIME: 0 days 0 hours 0 minutes 3 seconds 522 msec
