                         Program Version 3.0.2 -  RELEASE  -
|  1> ! UKS B3LYP d3bj def2-SVP TightSCF Grid4 RI def2-SVP/J RIJCOSX
|  2> * xyz 0 2
|  3> I  0.0  0.0  0.0
|  4> *
|  5>
|  6>                          ****END OF INPUT****

CARTESIAN COORDINATES (ANGSTROEM)
---------------------------------
  I      0.000000    0.000000    0.000000

 Total Charge           Charge          ....    0
 Multiplicity           Mult            ....    2
 Number of Electrons    NEL             ....   53
 Basis Dimension        Dim             ....   36

ORBITAL ENERGIES
----------------
                 SPIN UP ORBITALS
  NO   OCC          E(Eh)            E(eV)
   0   1.0000   -1165.838381    -31724.0752
   1   1.0000    -176.382591     -4799.6143
   2   1.0000    -165.745590     -4510.1668
   3   1.0000    -165.744418     -4510.1349
   4   1.0000    -165.744418     -4510.1349
   5   1.0000     -35.838124      -975.2049
   6   1.0000     -31.347078      -852.9974
   7   1.0000     -31.338828      -852.7729
   8   1.0000     -31.338828      -852.7729
   9   1.0000     -22.985464      -625.4663
  10   1.0000     -22.983840      -625.4221
  11   1.0000     -22.983679      -625.4177
  12   1.0000     -22.978842      -625.2861
  13   1.0000     -22.978627      -625.2802
  14   1.0000      -6.365172      -173.2051
  15   1.0000      -4.786122      -130.2370
  16   1.0000      -4.764212      -129.6408
  17   1.0000      -4.764212      -129.6408
  18   1.0000      -2.048857       -55.7522
  19   1.0000      -2.042857       -55.5890
  20   1.0000      -2.042829       -55.5882
  21   1.0000      -2.024877       -55.0997
  22   1.0000      -2.024838       -55.0987
  23   1.0000      -0.648839       -17.6558
  24   1.0000      -0.323385        -8.7998
  25   1.0000      -0.281350        -7.6559
  26   1.0000      -0.281350        -7.6559
  27   0.0000       0.213076         5.7981
  28   0.0000       0.364665         9.9230
  29   0.0000       0.373842        10.1728
  30   0.0000       0.373846        10.1729
  31   0.0000       0.404761        11.0141

                 SPIN DOWN ORBITALS
  NO   OCC          E(Eh)            E(eV)
   0   1.0000   -1165.837084    -31724.0399
   1   1.0000    -176.381921     -4799.5961
   2   1.0000    -165.743922     -4510.1214
   3   1.0000    -165.743917     -4510.1213
   4   1.0000    -165.743016     -4510.0968
   5   1.0000     -35.836795      -975.1688
   6   1.0000     -31.343408      -852.8975
   7   1.0000     -31.338170      -852.7550
   8   1.0000     -31.338169      -852.7549
   9   1.0000     -22.983356      -625.4089
  10   1.0000     -22.982185      -625.3770
  11   1.0000     -22.982021      -625.3726
  12   1.0000     -22.978536      -625.2778
  13   1.0000     -22.978321      -625.2719
  14   1.0000      -6.361738      -173.1117
  15   1.0000      -4.777612      -130.0054
  16   1.0000      -4.762795      -129.6022
  17   1.0000      -4.762795      -129.6022
  18   1.0000      -2.041391       -55.5491
  19   1.0000      -2.037133       -55.4332
  20   1.0000      -2.037105       -55.4325
  21   1.0000      -2.023819       -55.0709
  22   1.0000      -2.023780       -55.0699
  23   1.0000      -0.614016       -16.7082
  24   1.0000      -0.270071        -7.3490
  25   1.0000      -0.270071        -7.3490
  26   0.0000      -0.211055        -5.7431
  27   0.0000       0.222948         6.0667
  28   0.0000       0.409779        11.1506
  29   0.0000       0.409783        11.1507
  30   0.0000       0.410552        11.1717

MULLIKEN ATOMIC CHARGES AND SPIN POPULATIONS
--------------------------------------------
   0 I :   -0.000000    1.000000
Sum of atomic charges         :   -0.0000000

LOEWDIN ATOMIC CHARGES AND SPIN POPULATIONS
-------------------------------------------
   0 I :   -0.000000    1.000000

Dispersion correction           -0.000000000
FINAL SINGLE POINT ENERGY     -6919.638734715522

DIPOLE MOMENT
-------------
                                X             Y             Z
Electronic contribution:     -0.00000       0.00000       0.00000
Nuclear contribution   :      0.00000       0.00000       0.00000
                        -----------------------------------------
Total Dipole Moment    :     -0.00000       0.00000       0.00000
                        -----------------------------------------
Magnitude (a.u.)       :      0.00000
Magnitude (Debye)      :      0.00000

                             ****ORCA TERMINATED NORMALLY****
TOTAL RUN TIME: 0 days 0 hours 0 minutes 7 seconds 42 msec
