                         Program Version 3.0.2 -  RELEASE  -
|  1> ! UKS B3LYP d3bj def2-SVP TightSCF Grid4 RI def2-SVP/J RIJCOSX
|  2> * xyz 0 3
|  3> O  0.0  0.0  0.0
|  4> *
|  5>
|  6>                          ****END OF INPUT****

CARTESIAN COORDINATES (ANGSTROEM)
---------------------------------
  O      0.000000    0.000000    0.000000

 Total Charge           Charge          ....    0
 Multiplicity           Mult            ....    3
 Number of Electrons    NEL             ....    8
 Basis Dimension        Dim             ....   14

ORBITAL ENERGIES
----------------
                 SPIN UP ORBITALS
  NO   OCC          E(Eh)            E(eV)
   0   1.0000     -19.262462      -524.1582
   1   1.0000      -0.982325       -26.7304
   2   1.0000      -0.443670       -12.0729
   3   1.0000      -0.443670       -12.0729
   4   1.0000      -0.366461        -9.9719
   5   0.0000       0.736693        20.0464
   6   0.0000       0.822573        22.3833
   7   0.0000       0.822573        22.3833
   8   0.0000       0.870506        23.6877
   9   0.0000       2.469728        67.2047

                 SPIN DOWN ORBITALS
  NO   OCC          E(Eh)            E(eV)
   0   1.0000     -19.211196      -522.7632
   1   1.0000      -0.824458       -22.4346
   2   1.0000      -0.314037        -8.5454
   3   0.0000      -0.159589        -4.3426
   4   0.0000      -0.159588        -4.3426
   5   0.0000       0.805591        21.9212
   6   0.0000       0.900722        24.5099
   7   0.0000       0.937695        25.5160

MULLIKEN ATOMIC CHARGES AND SPIN POPULATIONS
--------------------------------------------
   0 O :   -0.000000    2.000000
Sum of atomic charges         :   -0.0000000

LOEWDIN ATOMIC CHARGES AND SPIN POPULATIONS
-------------------------------------------
   0 O :   -0.000000    2.000000

Dispersion correction           -0.000000000
FINAL SINGLE POINT ENERGY       -74.971340131182

DIPOLE MOMENT
-------------
                                X             Y             Z
Electronic contribution:     -0.00000       0.00000      -0.00000
Nuclear contribution   :      0.00000       0.00000       0.00000
                        -----------------------------------------
Total Dipole Moment    :     -0.00000       0.00000      -0.00000
                        -----------------------------------------
Magnitude (a.u.)       :      0.00000
Magnitude (Debye)      :      0.00000

                             ****ORCA TERMINATED NORMALLY****
TOTAL RUN TIME: 0 days 0 hours 0 minutes 3 seconds 760 msec
