                         Program Version 3.0.2 -  RELEASE  -
|  1> ! UKS B3LYP d3bj def2-SVP TightSCF Grid4 RI def2-SVP/J RIJCOSX
|  2> * xyz 0 4
|  3> P  0.0  0.0  0.0
|  4> *
|  5>
|  6>                          ****END OF INPUT****

CARTESIAN COORDINATES (ANGSTROEM)
---------------------------------
  P      0.000000    0.000000    0.000000

 Total Charge           Charge          ....    0
 Multiplicity           Mult            ....    4
 Number of Electrons    NEL             ....   15
 Basis Dimension        Dim             ....   18

ORBITAL ENERGIES
----------------
                 SPIN UP ORBITALS
  NO   OCC          E(Eh)            E(eV)
   0   1.0000     -77.073818     -2097.2852
   1   1.0000      -6.572774      -178.8543
   2   1.0000      -4.739880      -128.9787
   3   1.0000      -4.739880      -128.9787
   4   1.0000      -4.739880      -128.9787
   5   1.0000      -0.586545       -15.9607
   6   1.0000      -0.250262        -6.8100
   7   1.0000      -0.250262        -6.8100
   8   1.0000      -0.250262        -6.8100
   9   0.0000       0.225922         6.1476
  10   0.0000       0.519344        14.1321
  11   0.0000       0.519344        14.1321
  12   0.0000       0.519344        14.1321
  13   0.0000       0.519344        14.1321

                 SPIN DOWN ORBITALS
  NO   OCC          E(Eh)            E(eV)
   0   1.0000     -77.061329     -2096.9454
   1   1.0000      -6.560076      -178.5087
   2   1.0000      -4.720919      -128.4627
   3   1.0000      -4.720919      -128.4627
   4   1.0000      -4.720919      -128.4627
   5   1.0000      -0.468805       -12.7568
   6   0.0000      -0.100787        -2.7426
   7   0.0000      -0.100787        -2.7426
   8   0.0000      -0.100787        -2.7426
   9   0.0000       0.263970         7.1830
  10   0.0000       0.586079        15.9480

MULLIKEN ATOMIC CHARGES AND SPIN POPULATIONS
--------------------------------------------
   0 P :    0.000000    3.000000
Sum of atomic charges         :    0.0000000

LOEWDIN ATOMIC CHARGES AND SPIN POPULATIONS
-------------------------------------------
   0 P :   -0.000000    3.000000

Dispersion correction           -0.000000000
FINAL SINGLE POINT ENERGY      -341.109280569995

DIPOLE MOMENT
-------------
                                X             Y             Z
Electronic contribution:      0.00000       0.00000       0.00000
Nuclear contribution   :      0.00000       0.00000       0.00000
                        -----------------------------------------
Total Dipole Moment    :      0.00000       0.00000       0.00000
                        -----------------------------------------
Magnitude (a.u.)       :      0.00000
Magnitude (Debye)      :      0.00000

                             ****ORCA TERMINATED NORMALLY****
TOTAL RUN TIME: 0 days 0 hours 0 minutes 3 seconds 270 msec
