                         Program Version 3.0.2 -  RELEASE  -
|  1> ! UKS B3LYP d3bj def2-SVP TightSCF Grid4 RI def2-SVP/J RIJCOSX
|  2> * xyz 0 3
|  3> S  0.0  0.0  0.0
|  4> *
|  5>
|  6>                          ****END OF INPUT****

CARTESIAN COORDINATES (ANGSTROEM)
---------------------------------
  S      0.000000    0.000000    0.000000

 Total Charge           Charge          ....    0
 Multiplicity           Mult            ....    3
 Number of Electrons    NEL             ....   16
 Basis Dimension        Dim             ....   18

ORBITAL ENERGIES
----------------
                 SPIN UP ORBITALS
  NO   OCC          E(Eh)            E(eV)
   0   1.0000     -88.881954     -2418.6009
   1   1.0000      -7.974203      -216.9891
   2   1.0000      -5.948427      -161.8649
   3   1.0000      -5.948427      -161.8649
   4   1.0000      -5.928033      -161.3100
   5   1.0000      -0.707997       -19.2656
   6   1.0000      -0.320177        -8.7125
   7   1.0000      -0.320177        -8.7125
   8   1.0000      -0.271007        -7.3745
   9   0.0000       0.315714         8.5910
  10   0.0000       0.595373        16.2009
  11   0.0000       0.595373        16.2009
  12   0.0000       0.635439        17.2912
  13   0.0000       0.635439        17.2912

                 SPIN DOWN ORBITALS
  NO   OCC          E(Eh)            E(eV)
   0   1.0000     -88.871152     -2418.3070
   1   1.0000      -7.963614      -216.7010
   2   1.0000      -5.927557      -161.2970
   3   1.0000      -5.927556      -161.2970
   4   1.0000      -5.921790      -161.1401
   5   1.0000      -0.614652       -16.7255
   6   1.0000      -0.243657        -6.6302
   7   0.0000      -0.160187        -4.3589
   8   0.0000      -0.160187        -4.3589
   9   0.0000       0.347387         9.4529
  10   0.0000       0.695158        18.9162
  11   0.0000       0.695158        18.9162

MULLIKEN ATOMIC CHARGES AND SPIN POPULATIONS
--------------------------------------------
   0 S :   -0.000000    2.000000
Sum of atomic charges         :   -0.0000000

LOEWDIN ATOMIC CHARGES AND SPIN POPULATIONS
-------------------------------------------
   0 S :   -0.000000    2.000000

Dispersion correction           -0.000000000
FINAL SINGLE POINT ENERGY      -397.934238591573

DIPOLE MOMENT
-------------
                                X             Y             Z
Electronic contribution:      0.00000      -0.00000       0.00000
Nuclear contribution   :      0.00000       0.00000       0.00000
                        -----------------------------------------
Total Dipole Moment    :      0.00000      -0.00000       0.00000
                        -----------------------------------------
Magnitude (a.u.)       :      0.00000
Magnitude (Debye)      :      0.00000

                             ****ORCA TERMINATED NORMALLY****
TOTAL RUN TIME: 0 days 0 hours 0 minutes 4 seconds 25 msec
