                         Program Version 4.0.0.2 - RELEASE -
|  1> ! UKS wB97x d3 def2-TZVP TightSCF Grid5 def2/J RIJONX
|  2> * xyz 0 2
|  3> Br 0.0  0.0  0.0
|  4> *
|  5>
|  6>                          ****END OF INPUT****

CARTESIAN COORDINATES (ANGSTROEM)
---------------------------------
  Br     0.000000    0.000000    0.000000

 Total Charge           Charge          ....    0
 Multiplicity           Mult            ....    2
 Number of Electrons    NEL             ....   35
 Basis Dimension        Dim             ....   48

ORBITAL ENERGIES
----------------
                 SPIN UP ORBITALS
  NO   OCC          E(Eh)            E(eV)
   0   1.0000    -482.667591    -13134.0529
   1   1.0000     -62.542442     -1701.8664
   2   1.0000     -56.360945     -1533.6593
   3   1.0000     -56.355487     -1533.5108
   4   1.0000     -56.355487     -1533.5108
   5   1.0000      -8.822178      -240.0637
   6   1.0000      -6.661860      -181.2784
   7   1.0000      -6.641017      -180.7113
   8   1.0000      -6.641017      -180.7113
   9   1.0000      -2.783927       -75.7545
  10   1.0000      -2.778836       -75.6160
  11   1.0000      -2.778836       -75.6160
  12   1.0000      -2.763443       -75.1971
  13   1.0000      -2.763443       -75.1971
  14   1.0000      -0.920055       -25.0360
  15   1.0000      -0.474497       -12.9117
  16   1.0000      -0.425668       -11.5830
  17   1.0000      -0.425668       -11.5830
  18   0.0000       0.318375         8.6634
  19   0.0000       0.329609         8.9691
  20   0.0000       0.329609         8.9691
  21   0.0000       0.358921         9.7667
  22   0.0000       0.364288         9.9128

                 SPIN DOWN ORBITALS
  NO   OCC          E(Eh)            E(eV)
   0   1.0000    -482.665217    -13133.9883
   1   1.0000     -62.541021     -1701.8277
   2   1.0000     -56.355446     -1533.5097
   3   1.0000     -56.354279     -1533.4779
   4   1.0000     -56.354279     -1533.4779
   5   1.0000      -8.819042      -239.9783
   6   1.0000      -6.653175      -181.0421
   7   1.0000      -6.639724      -180.6761
   8   1.0000      -6.639724      -180.6761
   9   1.0000      -2.777598       -75.5823
  10   1.0000      -2.774351       -75.4939
  11   1.0000      -2.774351       -75.4939
  12   1.0000      -2.762864       -75.1814
  13   1.0000      -2.762864       -75.1814
  14   1.0000      -0.868092       -23.6220
  15   1.0000      -0.410627       -11.1737
  16   1.0000      -0.410627       -11.1737
  17   0.0000      -0.140376        -3.8198
  18   0.0000       0.331192         9.0122
  19   0.0000       0.331192         9.0122
  20   0.0000       0.332437         9.0461
  21   0.0000       0.373129        10.1533

MULLIKEN ATOMIC CHARGES AND SPIN POPULATIONS
--------------------------------------------
   0 Br:   -0.000000    1.000000
Sum of atomic charges         :   -0.0000000

LOEWDIN ATOMIC CHARGES AND SPIN POPULATIONS
-------------------------------------------
   0 Br:   -0.000000    1.000000

Dispersion correction           -0.000000000
FINAL SINGLE POINT ENERGY     -2574.139476841509

DIPOLE MOMENT
-------------
                                X             Y             Z
Electronic contribution:      0.00000      -0.00000      -0.00000
Nuclear contribution   :      0.00000       0.00000       0.00000
                        -----------------------------------------
Total Dipole Moment    :      0.00000      -0.00000      -0.00000
                        -----------------------------------------
Magnitude (a.u.)       :      0.00000
Magnitude (Debye)      :      0.00000

                             ****ORCA TERMINATED NORMALLY****
TOTAL RUN TIME: 0 days 0 hours 0 minutes 9 seconds 734 msec
