                         Program Version 4.0.0.2 - RELEASE -
|  1> ! UKS wB97x d3 def2-TZVP TightSCF Grid5 def2/J RIJONX
|  2> * xyz 0 3
|  3> C  0.0  0.0  0.0
|  4> *
|  5>
|  6>                          ****END OF INPUT****

CARTESIAN COORDINATES (ANGSTROEM)
---------------------------------
  C      0.000000    0.000000    0.000000

 Total Charge           Charge          ....    0
 Multiplicity           Mult            ....    3
 Number of Electrons    NEL             ....    6
 Basis Dimension        Dim             ....   31

ORBITAL ENERGIES
----------------
                 SPIN UP ORBITALS
  NO   OCC          E(Eh)            E(eV)
   0   1.0000     -10.384473      -282.5759
   1   1.0000      -0.708342       -19.2750
   2   1.0000      -0.371393       -10.1061
   3   1.0000      -0.371393       -10.1061
   4   0.0000      -0.048055        -1.3077
   5   0.0000       0.234570         6.3830
   6   0.0000       0.315187         8.5767
   7   0.0000       0.315187         8.5767
   8   0.0000       0.329164         8.9570

                 SPIN DOWN ORBITALS
  NO   OCC          E(Eh)            E(eV)
   0   1.0000     -10.362348      -281.9738
   1   1.0000      -0.580590       -15.7987
   2   0.0000      -0.014986        -0.4078
   3   0.0000       0.017865         0.4861
   4   0.0000       0.017865         0.4861
   5   0.0000       0.241997         6.5851
   6   0.0000       0.347641         9.4598

MULLIKEN ATOMIC CHARGES AND SPIN POPULATIONS
--------------------------------------------
   0 C :   -0.000000    2.000000
Sum of atomic charges         :   -0.0000000

LOEWDIN ATOMIC CHARGES AND SPIN POPULATIONS
-------------------------------------------
   0 C :    0.000000    2.000000

Dispersion correction           -0.000000000
FINAL SINGLE POINT ENERGY       -37.845997241999

DIPOLE MOMENT
-------------
                                X             Y             Z
Electronic contribution:     -0.00000       0.00000      -0.00000
Nuclear contribution   :      0.00000       0.00000       0.00000
                        -----------------------------------------
Total Dipole Moment    :     -0.00000       0.00000      -0.00000
                        -----------------------------------------
Magnitude (a.u.)       :      0.00000
Magnitude (Debye)      :      0.00000

                             ****ORCA TERMINATED NORMALLY****
TOTAL RUN TIME: 0 days 0 hours 0 minutes 3 seconds 229 msec
