                         Program Version 4.0.0.2 - RELEASE -
|  1> ! UKS wB97x d3 def2-TZVP TightSCF Grid5 def2/J RIJONX
|  2> * xyz 0 2
|  3> Cl 0.0  0.0  0.0
|  4> *
|  5>
|  6>                          ****END OF INPUT****

CARTESIAN COORDINATES (ANGSTROEM)
---------------------------------
  Cl     0.000000    0.000000    0.000000

 Total Charge           Charge          ....    0
 Multiplicity           Mult            ....    2
 Number of Electrons    NEL             ....   17
 Basis Dimension        Dim             ....   37

ORBITAL ENERGIES
----------------
                 SPIN UP ORBITALS
  NO   OCC          E(Eh)            E(eV)
   0   1.0000    -101.544543     -2763.1675
   1   1.0000      -9.589877      -260.9538
   2   1.0000      -7.361061      -200.3046
   3   1.0000      -7.339547      -199.7192
   4   1.0000      -7.339547      -199.7192
   5   1.0000      -0.973035       -26.4776
   6   1.0000      -0.514630       -14.0038
   7   1.0000      -0.460876       -12.5411
   8   1.0000      -0.460876       -12.5411
   9   0.0000       0.418246        11.3811
  10   0.0000       0.432189        11.7605
  11   0.0000       0.432189        11.7605
  12   0.0000       0.467810        12.7298
  13   0.0000       0.477212        12.9856

                 SPIN DOWN ORBITALS
  NO   OCC          E(Eh)            E(eV)
   0   1.0000    -101.537783     -2762.9835
   1   1.0000      -9.585462      -260.8337
   2   1.0000      -7.342990      -199.8129
   3   1.0000      -7.335825      -199.6179
   4   1.0000      -7.335825      -199.6179
   5   1.0000      -0.911327       -24.7985
   6   1.0000      -0.443683       -12.0732
   7   1.0000      -0.443683       -12.0732
   8   0.0000      -0.144161        -3.9228
   9   0.0000       0.434566        11.8251
  10   0.0000       0.434566        11.8251
  11   0.0000       0.436510        11.8780
  12   0.0000       0.520024        14.1506

MULLIKEN ATOMIC CHARGES AND SPIN POPULATIONS
--------------------------------------------
   0 Cl:   -0.000000    1.000000
Sum of atomic charges         :   -0.0000000

LOEWDIN ATOMIC CHARGES AND SPIN POPULATIONS
-------------------------------------------
   0 Cl:   -0.000000    1.000000

Dispersion correction           -0.000000000
FINAL SINGLE POINT ENERGY      -460.147268697091

DIPOLE MOMENT
-------------
                                X             Y             Z
Electronic contribution:     -0.00000      -0.00000      -0.00000
Nuclear contribution   :      0.00000       0.00000       0.00000
                        -----------------------------------------
Total Dipole Moment    :     -0.00000      -0.00000      -0.00000
                        -----------------------------------------
Magnitude (a.u.)       :      0.00000
Magnitude (Debye)      :      0.00000

                             ****ORCA TERMINATED NORMALLY****
TOTAL RUN TIME: 0 days 0 hours 0 minutes 3 seconds 437 msec
