                         Program Version 4.0.0.2 - RELEASE -
|  1> ! UKS wB97x d3 def2-TZVP TightSCF Grid5 def2/J RIJONX
|  2> * xyz 0 2
|  3> F  0.0  0.0  0.0
|  4> *
|  5>
|  6>                          ****END OF INPUT****

CARTESIAN COORDINATES (ANGSTROEM)
---------------------------------
  F      0.000000    0.000000    0.000000

 Total Charge           Charge          ....    0
 Multiplicity           Mult            ....    2
 Number of Electrons    NEL             ....    9
 Basis Dimension        Dim             ....   31

ORBITAL ENERGIES
----------------
                 SPIN UP ORBITALS
  NO   OCC          E(Eh)            E(eV)
   0   1.0000     -24.834911      -675.7923
   1   1.0000      -1.352137       -36.7935
   2   1.0000      -0.671776       -18.2799
   3   1.0000      -0.586918       -15.9708
   4   1.0000      -0.586918       -15.9708
   5   0.0000       0.562932        15.3181
   6   0.0000       0.607022        16.5179
   7   0.0000       0.624991        17.0069
   8   0.0000       0.624991        17.0069
   9   0.0000       1.974193        53.7205

                 SPIN DOWN ORBITALS
  NO   OCC          E(Eh)            E(eV)
   0   1.0000     -24.811611      -675.1583
   1   1.0000      -1.257092       -34.2072
   2   1.0000      -0.553670       -15.0661
   3   1.0000      -0.553670       -15.0661
   4   0.0000      -0.151145        -4.1129
   5   0.0000       0.573737        15.6122
   6   0.0000       0.631391        17.1810
   7   0.0000       0.631391        17.1810
   8   0.0000       0.651062        17.7163

MULLIKEN ATOMIC CHARGES AND SPIN POPULATIONS
--------------------------------------------
   0 F :   -0.000000    1.000000
Sum of atomic charges         :   -0.0000000

LOEWDIN ATOMIC CHARGES AND SPIN POPULATIONS
-------------------------------------------
   0 F :   -0.000000    1.000000

Dispersion correction           -0.000000000
FINAL SINGLE POINT ENERGY       -99.747249893469

DIPOLE MOMENT
-------------
                                X             Y             Z
Electronic contribution:      0.00000       0.00000       0.00000
Nuclear contribution   :      0.00000       0.00000       0.00000
                        -----------------------------------------
Total Dipole Moment    :      0.00000       0.00000       0.00000
                        -----------------------------------------
Magnitude (a.u.)       :      0.00000
Magnitude (Debye)      :      0.00000

                             ****ORCA TERMINATED NORMALLY****
TOTAL RUN TIME: 0 days 0 hours 0 minutes 2 seconds 950 msec
