                         Program Version 4.0.0.2 - RELEASE -
|  1> ! UKS wB97x d3 def2-TZVP TightSCF Grid5 def2/J RIJONX
|  2> * xyz 0 2
|  3> I  0.0  0.0  0.0
|  4> *
|  5>
|  6>                          ****END OF INPUT****

CARTESIAN COORDINATES (ANGSTROEM)
---------------------------------
  I      0.000000    0.000000    0.000000

 Total Charge           Charge          ....    0
 Multiplicity           Mult            ....    2
 Number of Electrons    NEL             ....   25
 Basis Dimension        Dim             ....   50

ORBITAL ENERGIES
----------------
                 SPIN UP ORBITALS
  NO   OCC          E(Eh)            E(eV)
   0   1.0000      -6.966964      -189.5807
   1   1.0000      -5.006795      -136.2418
   2   1.0000      -4.985305      -135.6570
   3   1.0000      -4.985305      -135.6570
   4   1.0000      -2.061036       -56.0836
   5   1.0000      -2.055359       -55.9292
   6   1.0000      -2.055359       -55.9292
   7   1.0000      -2.038379       -55.4671
   8   1.0000      -2.038379       -55.4671
   9   1.0000      -0.834439       -22.7062
  10   1.0000      -0.425491       -11.5782
  11   1.0000      -0.383976       -10.4485
  12   1.0000      -0.383976       -10.4485
  13   0.0000       0.235634         6.4119
  14   0.0000       0.244093         6.6421
  15   0.0000       0.244093         6.6421
  16   0.0000       0.275228         7.4893
  17   0.0000       0.280099         7.6219

                 SPIN DOWN ORBITALS
  NO   OCC          E(Eh)            E(eV)
   0   1.0000      -6.963595      -189.4891
   1   1.0000      -4.999842      -136.0526
   2   1.0000      -4.984190      -135.6267
   3   1.0000      -4.984190      -135.6267
   4   1.0000      -2.054156       -55.8964
   5   1.0000      -2.050440       -55.7953
   6   1.0000      -2.050440       -55.7953
   7   1.0000      -2.037811       -55.4516
   8   1.0000      -2.037811       -55.4516
   9   1.0000      -0.790558       -21.5122
  10   1.0000      -0.371968       -10.1218
  11   1.0000      -0.371968       -10.1218
  12   0.0000      -0.130675        -3.5559
  13   0.0000       0.245056         6.6683
  14   0.0000       0.245056         6.6683
  15   0.0000       0.247734         6.7412
  16   0.0000       0.282379         7.6839

MULLIKEN ATOMIC CHARGES AND SPIN POPULATIONS
--------------------------------------------
   0 I :   -0.000000    1.000000
Sum of atomic charges         :   -0.0000000

LOEWDIN ATOMIC CHARGES AND SPIN POPULATIONS
-------------------------------------------
   0 I :   -0.000000    1.000000

Dispersion correction           -0.000000000
FINAL SINGLE POINT ENERGY      -297.715986356808

DIPOLE MOMENT
-------------
                                X             Y             Z
Electronic contribution:     -0.00000       0.00000       0.00000
Nuclear contribution   :      0.00000       0.00000       0.00000
                        -----------------------------------------
Total Dipole Moment    :     -0.00000       0.00000       0.00000
                        -----------------------------------------
Magnitude (a.u.)       :      0.00000
Magnitude (Debye)      :      0.00000

                             ****ORCA TERMINATED NORMALLY****
TOTAL RUN TIME: 0 days 0 hours 0 minutes 10 seconds 430 msec
