                         Program Version 4.0.0.2 - RELEASE -
|  1> ! UKS wB97x d3 def2-TZVP TightSCF Grid5 def2/J RIJONX
|  2> * xyz 0 4
|  3> N  0.0  0.0  0.0
|  4> *
|  5>
|  6>                          ****END OF INPUT****

CARTESIAN COORDINATES (ANGSTROEM)
---------------------------------
  N      0.000000    0.000000    0.000000

 Total Charge           Charge          ....    0
 Multiplicity           Mult            ....    4
 Number of Electrons    NEL             ....    7
 Basis Dimension        Dim             ....   31

ORBITAL ENERGIES
----------------
                 SPIN UP ORBITALS
  NO   OCC          E(Eh)            E(eV)
   0   1.0000     -14.498281      -394.5183
   1   1.0000      -0.936854       -25.4931
   2   1.0000      -0.465490       -12.6666
   3   1.0000      -0.465490       -12.6666
   4   1.0000      -0.465490       -12.6666
   5   0.0000       0.327762         8.9189
   6   0.0000       0.429012        11.6740
   7   0.0000       0.429012        11.6740
   8   0.0000       0.429012        11.6740
   9   0.0000       1.094117        29.7724

                 SPIN DOWN ORBITALS
  NO   OCC          E(Eh)            E(eV)
   0   1.0000     -14.454731      -393.3332
   1   1.0000      -0.715397       -19.4669
   2   0.0000       0.003368         0.0916
   3   0.0000       0.003368         0.0916
   4   0.0000       0.003368         0.0916
   5   0.0000       0.344191         9.3659
   6   0.0000       0.492323        13.3968

MULLIKEN ATOMIC CHARGES AND SPIN POPULATIONS
--------------------------------------------
   0 N :   -0.000000    3.000000
Sum of atomic charges         :   -0.0000000

LOEWDIN ATOMIC CHARGES AND SPIN POPULATIONS
-------------------------------------------
   0 N :   -0.000000    3.000000

Dispersion correction           -0.000000000
FINAL SINGLE POINT ENERGY       -54.591493100738

DIPOLE MOMENT
-------------
                                X             Y             Z
Electronic contribution:     -0.00000       0.00000       0.00000
Nuclear contribution   :      0.00000       0.00000       0.00000
                        -----------------------------------------
Total Dipole Moment    :     -0.00000       0.00000       0.00000
                        -----------------------------------------
Magnitude (a.u.)       :      0.00000
Magnitude (Debye)      :      0.00000

                             ****ORCA TERMINATED NORMALLY****
TOTAL RUN TIME: 0 days 0 hours 0 minutes 2 seconds 904 msec
