                         Program Version 4.0.0.2 - RELEASE -
|  1> ! UKS wB97x d3 def2-TZVP TightSCF Grid5 def2/J RIJONX
|  2> * xyz 0 3
|  3> O  0.0  0.0  0.0
|  4> *
|  5>
|  6>                          ****END OF INPUT****

CARTESIAN COORDINATES (ANGSTROEM)
---------------------------------
  O      0.000000    0.000000    0.000000

 Total Charge           Charge          ....    0
 Multiplicity           Mult            ....    3
 Number of Electrons    NEL             ....    8
 Basis Dimension        Dim             ....   31

ORBITAL ENERGIES
----------------
                 SPIN UP ORBITALS
  NO   OCC          E(Eh)            E(eV)
   0   1.0000     -19.332474      -526.0634
   1   1.0000      -1.142023       -31.0760
   2   1.0000      -0.569605       -15.4997
   3   1.0000      -0.569605       -15.4997
   4   1.0000      -0.497720       -13.5437
   5   0.0000       0.435246        11.8436
   6   0.0000       0.503142        13.6912
   7   0.0000       0.503142        13.6912
   8   0.0000       0.517587        14.0843
   9   0.0000       1.478833        40.2411

                 SPIN DOWN ORBITALS
  NO   OCC          E(Eh)            E(eV)
   0   1.0000     -19.294511      -525.0303
   1   1.0000      -0.971696       -26.4412
   2   1.0000      -0.441204       -12.0058
   3   0.0000      -0.064598        -1.7578
   4   0.0000      -0.064597        -1.7578
   5   0.0000       0.450673        12.2634
   6   0.0000       0.530107        14.4249
   7   0.0000       0.555945        15.1280

MULLIKEN ATOMIC CHARGES AND SPIN POPULATIONS
--------------------------------------------
   0 O :   -0.000000    2.000000
Sum of atomic charges         :   -0.0000000

LOEWDIN ATOMIC CHARGES AND SPIN POPULATIONS
-------------------------------------------
   0 O :   -0.000000    2.000000

Dispersion correction           -0.000000000
FINAL SINGLE POINT ENERGY       -75.076829539026

DIPOLE MOMENT
-------------
                                X             Y             Z
Electronic contribution:     -0.00000      -0.00000       0.00000
Nuclear contribution   :      0.00000       0.00000       0.00000
                        -----------------------------------------
Total Dipole Moment    :     -0.00000      -0.00000       0.00000
                        -----------------------------------------
Magnitude (a.u.)       :      0.00000
Magnitude (Debye)      :      0.00000

                             ****ORCA TERMINATED NORMALLY****
TOTAL RUN TIME: 0 days 0 hours 0 minutes 3 seconds 251 msec
