                         Program Version 4.0.0.2 - RELEASE -
|  1> ! UKS wB97x d3 def2-TZVP TightSCF Grid5 def2/J RIJONX
|  2> * xyz 0 4
|  3> P  0.0  0.0  0.0
|  4> *
|  5>
|  6>                          ****END OF INPUT****

CARTESIAN COORDINATES (ANGSTROEM)
---------------------------------
  P      0.000000    0.000000    0.000000

 Total Charge           Charge          ....    0
 Multiplicity           Mult            ....    4
 Number of Electrons    NEL             ....   15
 Basis Dimension        Dim             ....   37

ORBITAL ENERGIES
----------------
                 SPIN UP ORBITALS
  NO   OCC          E(Eh)            E(eV)
   0   1.0000     -77.091833     -2097.7754
   1   1.0000      -6.678099      -181.7203
   2   1.0000      -4.839589      -131.6919
   3   1.0000      -4.839589      -131.6919
   4   1.0000      -4.839589      -131.6919
   5   1.0000      -0.724429       -19.7127
   6   1.0000      -0.357712        -9.7338
   7   1.0000      -0.357712        -9.7338
   8   1.0000      -0.357712        -9.7338
   9   0.0000       0.319475         8.6934
  10   0.0000       0.319475         8.6934
  11   0.0000       0.319475         8.6934
  12   0.0000       0.344133         9.3643
  13   0.0000       0.344133         9.3643

                 SPIN DOWN ORBITALS
  NO   OCC          E(Eh)            E(eV)
   0   1.0000     -77.078941     -2097.4246
   1   1.0000      -6.668342      -181.4548
   2   1.0000      -4.822330      -131.2223
   3   1.0000      -4.822330      -131.2223
   4   1.0000      -4.822330      -131.2223
   5   1.0000      -0.573357       -15.6018
   6   0.0000      -0.030898        -0.8408
   7   0.0000      -0.030898        -0.8408
   8   0.0000      -0.030898        -0.8408
   9   0.0000       0.363902         9.9023
  10   0.0000       0.363902         9.9023

MULLIKEN ATOMIC CHARGES AND SPIN POPULATIONS
--------------------------------------------
   0 P :   -0.000000    3.000000
Sum of atomic charges         :   -0.0000000

LOEWDIN ATOMIC CHARGES AND SPIN POPULATIONS
-------------------------------------------
   0 P :   -0.000000    3.000000

Dispersion correction           -0.000000000
FINAL SINGLE POINT ENERGY      -341.253270709719

DIPOLE MOMENT
-------------
                                X             Y             Z
Electronic contribution:      0.00000       0.00000       0.00000
Nuclear contribution   :      0.00000       0.00000       0.00000
                        -----------------------------------------
Total Dipole Moment    :      0.00000       0.00000       0.00000
                        -----------------------------------------
Magnitude (a.u.)       :      0.00000
Magnitude (Debye)      :      0.00000

                             ****ORCA TERMINATED NORMALLY****
TOTAL RUN TIME: 0 days 0 hours 0 minutes 2 seconds 953 msec
