                         Program Version 4.0.0.2 - RELEASE -
|  1> ! UKS wB97x d3 def2-TZVP TightSCF Grid5 def2/J RIJONX
|  2> * xyz 0 3
|  3> S  0.0  0.0  0.0
|  4> *
|  5>
|  6>                          ****END OF INPUT****

CARTESIAN COORDINATES (ANGSTROEM)
---------------------------------
  S      0.000000    0.000000    0.000000

 Total Charge           Charge          ....    0
 Multiplicity           Mult            ....    3
 Number of Electrons    NEL             ....   16
 Basis Dimension        Dim             ....   37

ORBITAL ENERGIES
----------------
                 SPIN UP ORBITALS
  NO   OCC          E(Eh)            E(eV)
   0   1.0000     -88.896621     -2419.0000
   1   1.0000      -8.079759      -219.8614
   2   1.0000      -6.046971      -164.5464
   3   1.0000      -6.046971      -164.5464
   4   1.0000      -6.028780      -164.0514
   5   1.0000      -0.850936       -23.1552
   6   1.0000      -0.436326       -11.8730
   7   1.0000      -0.436326       -11.8730
   8   1.0000      -0.389708       -10.6045
   9   0.0000       0.358416         9.7530
  10   0.0000       0.358416         9.7530
  11   0.0000       0.369720        10.0606
  12   0.0000       0.389762        10.6060
  13   0.0000       0.389762        10.6060

                 SPIN DOWN ORBITALS
  NO   OCC          E(Eh)            E(eV)
   0   1.0000     -88.885635     -2418.7011
   1   1.0000      -8.071769      -219.6440
   2   1.0000      -6.028414      -164.0415
   3   1.0000      -6.028414      -164.0415
   4   1.0000      -6.022378      -163.8772
   5   1.0000      -0.738893       -20.1063
   6   1.0000      -0.359947        -9.7946
   7   0.0000      -0.083779        -2.2797
   8   0.0000      -0.083778        -2.2797
   9   0.0000       0.374440        10.1890
  10   0.0000       0.384657        10.4671
  11   0.0000       0.384659        10.4671

MULLIKEN ATOMIC CHARGES AND SPIN POPULATIONS
--------------------------------------------
   0 S :   -0.000000    2.000000
Sum of atomic charges         :   -0.0000000

LOEWDIN ATOMIC CHARGES AND SPIN POPULATIONS
-------------------------------------------
   0 S :   -0.000000    2.000000

Dispersion correction           -0.000000000
FINAL SINGLE POINT ENERGY      -398.107964288845

DIPOLE MOMENT
-------------
                                X             Y             Z
Electronic contribution:     -0.00000      -0.00000       0.00000
Nuclear contribution   :      0.00000       0.00000       0.00000
                        -----------------------------------------
Total Dipole Moment    :     -0.00000      -0.00000       0.00000
                        -----------------------------------------
Magnitude (a.u.)       :      0.00000
Magnitude (Debye)      :      0.00000

                             ****ORCA TERMINATED NORMALLY****
TOTAL RUN TIME: 0 days 0 hours 0 minutes 3 seconds 736 msec
