                         Program Version 4.0.0.2 - RELEASE -
|  1> ! UKS b3lyp d3bj def2-TZVP TightSCF Grid4 RI def2/J RIJCOSX
|  2> * xyz 0 2
|  3> Br 0.0  0.0  0.0
|  4> *
|  5>
|  6>                          ****END OF INPUT****

CARTESIAN COORDINATES (ANGSTROEM)
---------------------------------
  Br     0.000000    0.000000    0.000000

 Total Charge           Charge          ....    0
 Multiplicity           Mult            ....    2
 Number of Electrons    NEL             ....   35
 Basis Dimension        Dim             ....   48

ORBITAL ENERGIES
----------------
                 SPIN UP ORBITALS
  NO   OCC          E(Eh)            E(eV)
   0   1.0000    -482.891793    -13140.1537
   1   1.0000     -62.538752     -1701.7659
   2   1.0000     -56.356779     -1533.5459
   3   1.0000     -56.351368     -1533.3987
   4   1.0000     -56.351368     -1533.3987
   5   1.0000      -8.729974      -237.5547
   6   1.0000      -6.566652      -178.6877
   7   1.0000      -6.545296      -178.1066
   8   1.0000      -6.545296      -178.1066
   9   1.0000      -2.678393       -72.8828
  10   1.0000      -2.673110       -72.7390
  11   1.0000      -2.673110       -72.7390
  12   1.0000      -2.657284       -72.3084
  13   1.0000      -2.657281       -72.3083
  14   1.0000      -0.794362       -21.6157
  15   1.0000      -0.370408       -10.0793
  16   1.0000      -0.322589        -8.7781
  17   1.0000      -0.322589        -8.7781
  18   0.0000       0.222088         6.0433
  19   0.0000       0.240295         6.5388
  20   0.0000       0.240295         6.5388
  21   0.0000       0.261506         7.1159
  22   0.0000       0.269407         7.3309

                 SPIN DOWN ORBITALS
  NO   OCC          E(Eh)            E(eV)
   0   1.0000    -482.889222    -13140.0838
   1   1.0000     -62.537302     -1701.7265
   2   1.0000     -56.350999     -1533.3886
   3   1.0000     -56.350327     -1533.3704
   4   1.0000     -56.350327     -1533.3704
   5   1.0000      -8.726002      -237.4466
   6   1.0000      -6.555546      -178.3855
   7   1.0000      -6.543595      -178.0603
   8   1.0000      -6.543595      -178.0603
   9   1.0000      -2.670435       -72.6662
  10   1.0000      -2.667030       -72.5736
  11   1.0000      -2.667030       -72.5736
  12   1.0000      -2.656424       -72.2850
  13   1.0000      -2.656422       -72.2849
  14   1.0000      -0.750759       -20.4292
  15   1.0000      -0.309421        -8.4198
  16   1.0000      -0.309421        -8.4198
  17   0.0000      -0.232109        -6.3160
  18   0.0000       0.243428         6.6240
  19   0.0000       0.243428         6.6240
  20   0.0000       0.245275         6.6743
  21   0.0000       0.297878         8.1057

MULLIKEN ATOMIC CHARGES AND SPIN POPULATIONS
--------------------------------------------
   0 Br:   -0.000000    1.000000
Sum of atomic charges         :   -0.0000000

LOEWDIN ATOMIC CHARGES AND SPIN POPULATIONS
-------------------------------------------
   0 Br:   -0.000000    1.000000

Dispersion correction           -0.000000000
FINAL SINGLE POINT ENERGY     -2574.001734034733

DIPOLE MOMENT
-------------
                                X             Y             Z
Electronic contribution:     -0.00000       0.00000      -0.00000
Nuclear contribution   :      0.00000       0.00000       0.00000
                        -----------------------------------------
Total Dipole Moment    :     -0.00000       0.00000      -0.00000
                        -----------------------------------------
Magnitude (a.u.)       :      0.00000
Magnitude (Debye)      :      0.00000

                             ****ORCA TERMINATED NORMALLY****
TOTAL RUN TIME: 0 days 0 hours 0 minutes 5 seconds 492 msec
