                         Program Version 4.0.0.2 - RELEASE -
|  1> ! UKS b3lyp d3bj def2-TZVP TightSCF Grid4 RI def2/J RIJCOSX
|  2> * xyz 0 3
|  3> C  0.0  0.0  0.0
|  4> *
|  5>
|  6>                          ****END OF INPUT****

CARTESIAN COORDINATES (ANGSTROEM)
---------------------------------
  C      0.000000    0.000000    0.000000

 Total Charge           Charge          ....    0
 Multiplicity           Mult            ....    3
 Number of Electrons    NEL             ....    6
 Basis Dimension        Dim             ....   31

ORBITAL ENERGIES
----------------
                 SPIN UP ORBITALS
  NO   OCC          E(Eh)            E(eV)
   0   1.0000     -10.302621      -280.3486
   1   1.0000      -0.586020       -15.9464
   2   1.0000      -0.265477        -7.2240
   3   1.0000      -0.265477        -7.2240
   4   0.0000      -0.153074        -4.1653
   5   0.0000       0.139660         3.8003
   6   0.0000       0.218084         5.9344
   7   0.0000       0.218084         5.9344
   8   0.0000       0.233447         6.3524

                 SPIN DOWN ORBITALS
  NO   OCC          E(Eh)            E(eV)
   0   1.0000     -10.273472      -279.5554
   1   1.0000      -0.475998       -12.9526
   2   0.0000      -0.123969        -3.3734
   3   0.0000      -0.077982        -2.1220
   4   0.0000      -0.077982        -2.1220
   5   0.0000       0.160760         4.3745
   6   0.0000       0.243188         6.6175

MULLIKEN ATOMIC CHARGES AND SPIN POPULATIONS
--------------------------------------------
   0 C :   -0.000000    2.000000
Sum of atomic charges         :   -0.0000000

LOEWDIN ATOMIC CHARGES AND SPIN POPULATIONS
-------------------------------------------
   0 C :   -0.000000    2.000000

Dispersion correction           -0.000000000
FINAL SINGLE POINT ENERGY       -37.838155224439

DIPOLE MOMENT
-------------
                                X             Y             Z
Electronic contribution:      0.00002      -0.00001       0.00000
Nuclear contribution   :      0.00000       0.00000       0.00000
                        -----------------------------------------
Total Dipole Moment    :      0.00002      -0.00001       0.00000
                        -----------------------------------------
Magnitude (a.u.)       :      0.00002
Magnitude (Debye)      :      0.00005

                             ****ORCA TERMINATED NORMALLY****
TOTAL RUN TIME: 0 days 0 hours 0 minutes 2 seconds 762 msec
