                         Program Version 4.0.0.2 - RELEASE -
|  1> ! UKS b3lyp d3bj def2-TZVP TightSCF Grid4 RI def2/J RIJCOSX
|  2> * xyz 0 2
|  3> Cl 0.0  0.0  0.0
|  4> *
|  5>
|  6>                          ****END OF INPUT****

CARTESIAN COORDINATES (ANGSTROEM)
---------------------------------
  Cl     0.000000    0.000000    0.000000

 Total Charge           Charge          ....    0
 Multiplicity           Mult            ....    2
 Number of Electrons    NEL             ....   17
 Basis Dimension        Dim             ....   37

ORBITAL ENERGIES
----------------
                 SPIN UP ORBITALS
  NO   OCC          E(Eh)            E(eV)
   0   1.0000    -101.571351     -2763.8970
   1   1.0000      -9.500169      -258.5128
   2   1.0000      -7.272631      -197.8983
   3   1.0000      -7.250756      -197.3031
   4   1.0000      -7.250755      -197.3031
   5   1.0000      -0.844208       -22.9721
   6   1.0000      -0.406973       -11.0743
   7   1.0000      -0.352058        -9.5800
   8   1.0000      -0.352058        -9.5800
   9   0.0000       0.310566         8.4509
  10   0.0000       0.333877         9.0852
  11   0.0000       0.333877         9.0852
  12   0.0000       0.362922         9.8756
  13   0.0000       0.373677        10.1683

                 SPIN DOWN ORBITALS
  NO   OCC          E(Eh)            E(eV)
   0   1.0000    -101.563886     -2763.6938
   1   1.0000      -9.493534      -258.3322
   2   1.0000      -7.249819      -197.2776
   3   1.0000      -7.246646      -197.1913
   4   1.0000      -7.246629      -197.1908
   5   1.0000      -0.790519       -21.5111
   6   1.0000      -0.337047        -9.1715
   7   1.0000      -0.337046        -9.1715
   8   0.0000      -0.242127        -6.5886
   9   0.0000       0.338286         9.2052
  10   0.0000       0.338287         9.2052
  11   0.0000       0.344362         9.3706
  12   0.0000       0.415614        11.3094

MULLIKEN ATOMIC CHARGES AND SPIN POPULATIONS
--------------------------------------------
   0 Cl:   -0.000000    1.000000
Sum of atomic charges         :   -0.0000000

LOEWDIN ATOMIC CHARGES AND SPIN POPULATIONS
-------------------------------------------
   0 Cl:   -0.000000    1.000000

Dispersion correction           -0.000000000
FINAL SINGLE POINT ENERGY      -460.101764171721

DIPOLE MOMENT
-------------
                                X             Y             Z
Electronic contribution:     -0.00000       0.00000       0.00000
Nuclear contribution   :      0.00000       0.00000       0.00000
                        -----------------------------------------
Total Dipole Moment    :     -0.00000       0.00000       0.00000
                        -----------------------------------------
Magnitude (a.u.)       :      0.00000
Magnitude (Debye)      :      0.00000

                             ****ORCA TERMINATED NORMALLY****
TOTAL RUN TIME: 0 days 0 hours 0 minutes 2 seconds 985 msec
