                         Program Version 4.0.0.2 - RELEASE -
|  1> ! UKS b3lyp d3bj def2-TZVP TightSCF Grid4 RI def2/J RIJCOSX
|  2> * xyz 0 2
|  3> F  0.0  0.0  0.0
|  4> *
|  5>
|  6>                          ****END OF INPUT****

CARTESIAN COORDINATES (ANGSTROEM)
---------------------------------
  F      0.000000    0.000000    0.000000

 Total Charge           Charge          ....    0
 Multiplicity           Mult            ....    2
 Number of Electrons    NEL             ....    9
 Basis Dimension        Dim             ....   31

ORBITAL ENERGIES
----------------
                 SPIN UP ORBITALS
  NO   OCC          E(Eh)            E(eV)
   0   1.0000     -24.782327      -674.3614
   1   1.0000      -1.230824       -33.4924
   2   1.0000      -0.563386       -15.3305
   3   1.0000      -0.474836       -12.9209
   4   1.0000      -0.474835       -12.9209
   5   0.0000       0.441863        12.0237
   6   0.0000       0.472877        12.8676
   7   0.0000       0.502792        13.6817
   8   0.0000       0.502793        13.6817
   9   0.0000       1.857071        50.5335

                 SPIN DOWN ORBITALS
  NO   OCC          E(Eh)            E(eV)
   0   1.0000     -24.750610      -673.4983
   1   1.0000      -1.139002       -30.9938
   2   1.0000      -0.443549       -12.0696
   3   1.0000      -0.443545       -12.0695
   4   0.0000      -0.268897        -7.3171
   5   0.0000       0.461458        12.5569
   6   0.0000       0.510899        13.9023
   7   0.0000       0.510900        13.9023
   8   0.0000       0.532397        14.4873

MULLIKEN ATOMIC CHARGES AND SPIN POPULATIONS
--------------------------------------------
   0 F :   -0.000000    1.000000
Sum of atomic charges         :   -0.0000000

LOEWDIN ATOMIC CHARGES AND SPIN POPULATIONS
-------------------------------------------
   0 F :   -0.000000    1.000000

Dispersion correction           -0.000000000
FINAL SINGLE POINT ENERGY       -99.736301788532

DIPOLE MOMENT
-------------
                                X             Y             Z
Electronic contribution:     -0.00000      -0.00000      -0.00000
Nuclear contribution   :      0.00000       0.00000       0.00000
                        -----------------------------------------
Total Dipole Moment    :     -0.00000      -0.00000      -0.00000
                        -----------------------------------------
Magnitude (a.u.)       :      0.00000
Magnitude (Debye)      :      0.00000

                             ****ORCA TERMINATED NORMALLY****
TOTAL RUN TIME: 0 days 0 hours 0 minutes 2 seconds 717 msec
