                         Program Version 4.0.0.2 - RELEASE -
|  1> ! UKS b3lyp d3bj def2-TZVP TightSCF Grid4 RI def2/J RIJCOSX
|  2> * xyz 0 2
|  3> I  0.0  0.0  0.0
|  4> *
|  5>
|  6>                          ****END OF INPUT****

CARTESIAN COORDINATES (ANGSTROEM)
---------------------------------
  I      0.000000    0.000000    0.000000

 Total Charge           Charge          ....    0
 Multiplicity           Mult            ....    2
 Number of Electrons    NEL             ....   25
 Basis Dimension        Dim             ....   50

ORBITAL ENERGIES
----------------
                 SPIN UP ORBITALS
  NO   OCC          E(Eh)            E(eV)
   0   1.0000      -6.868136      -186.8915
   1   1.0000      -4.899355      -133.3182
   2   1.0000      -4.877087      -132.7123
   3   1.0000      -4.877087      -132.7123
   4   1.0000      -1.944915       -52.9238
   5   1.0000      -1.938946       -52.7614
   6   1.0000      -1.938946       -52.7614
   7   1.0000      -1.921221       -52.2791
   8   1.0000      -1.921221       -52.2791
   9   1.0000      -0.711000       -19.3473
  10   1.0000      -0.328131        -8.9289
  11   1.0000      -0.288001        -7.8369
  12   1.0000      -0.288001        -7.8369
  13   0.0000       0.151871         4.1326
  14   0.0000       0.165300         4.4980
  15   0.0000       0.165300         4.4980
  16   0.0000       0.183846         5.0027
  17   0.0000       0.191464         5.2100

                 SPIN DOWN ORBITALS
  NO   OCC          E(Eh)            E(eV)
   0   1.0000      -6.864260      -186.7860
   1   1.0000      -4.890411      -133.0748
   2   1.0000      -4.875767      -132.6764
   3   1.0000      -4.875767      -132.6764
   4   1.0000      -1.936428       -52.6929
   5   1.0000      -1.932541       -52.5871
   6   1.0000      -1.932541       -52.5871
   7   1.0000      -1.920443       -52.2579
   8   1.0000      -1.920443       -52.2579
   9   1.0000      -0.676410       -18.4060
  10   1.0000      -0.277059        -7.5391
  11   1.0000      -0.277059        -7.5391
  12   0.0000      -0.213150        -5.8001
  13   0.0000       0.167354         4.5539
  14   0.0000       0.167354         4.5539
  15   0.0000       0.167956         4.5703
  16   0.0000       0.216662         5.8957

MULLIKEN ATOMIC CHARGES AND SPIN POPULATIONS
--------------------------------------------
   0 I :   -0.000000    1.000000
Sum of atomic charges         :   -0.0000000

LOEWDIN ATOMIC CHARGES AND SPIN POPULATIONS
-------------------------------------------
   0 I :   -0.000000    1.000000

Dispersion correction           -0.000000000
FINAL SINGLE POINT ENERGY      -297.684231096142

DIPOLE MOMENT
-------------
                                X             Y             Z
Electronic contribution:     -0.00000      -0.00000      -0.00000
Nuclear contribution   :      0.00000       0.00000       0.00000
                        -----------------------------------------
Total Dipole Moment    :     -0.00000      -0.00000      -0.00000
                        -----------------------------------------
Magnitude (a.u.)       :      0.00000
Magnitude (Debye)      :      0.00000

                             ****ORCA TERMINATED NORMALLY****
TOTAL RUN TIME: 0 days 0 hours 0 minutes 7 seconds 329 msec
