                         Program Version 4.0.0.2 - RELEASE -
|  1> ! UKS b3lyp d3bj def2-TZVP TightSCF Grid4 RI def2/J RIJCOSX
|  2> * xyz 0 4
|  3> N  0.0  0.0  0.0
|  4> *
|  5>
|  6>                          ****END OF INPUT****

CARTESIAN COORDINATES (ANGSTROEM)
---------------------------------
  N      0.000000    0.000000    0.000000

 Total Charge           Charge          ....    0
 Multiplicity           Mult            ....    4
 Number of Electrons    NEL             ....    7
 Basis Dimension        Dim             ....   31

ORBITAL ENERGIES
----------------
                 SPIN UP ORBITALS
  NO   OCC          E(Eh)            E(eV)
   0   1.0000     -14.431426      -392.6991
   1   1.0000      -0.808595       -22.0030
   2   1.0000      -0.354531        -9.6473
   3   1.0000      -0.354531        -9.6473
   4   1.0000      -0.354531        -9.6473
   5   0.0000       0.216768         5.8985
   6   0.0000       0.316785         8.6202
   7   0.0000       0.316785         8.6202
   8   0.0000       0.316785         8.6202
   9   0.0000       0.984523        26.7902

                 SPIN DOWN ORBITALS
  NO   OCC          E(Eh)            E(eV)
   0   1.0000     -14.372986      -391.1088
   1   1.0000      -0.612209       -16.6590
   2   0.0000      -0.107658        -2.9295
   3   0.0000      -0.107658        -2.9295
   4   0.0000      -0.107658        -2.9295
   5   0.0000       0.256878         6.9900
   6   0.0000       0.381166        10.3720

MULLIKEN ATOMIC CHARGES AND SPIN POPULATIONS
--------------------------------------------
   0 N :   -0.000000    3.000000
Sum of atomic charges         :   -0.0000000

LOEWDIN ATOMIC CHARGES AND SPIN POPULATIONS
-------------------------------------------
   0 N :   -0.000000    3.000000

Dispersion correction           -0.000000000
FINAL SINGLE POINT ENERGY       -54.579006723868

DIPOLE MOMENT
-------------
                                X             Y             Z
Electronic contribution:      0.00000      -0.00000       0.00000
Nuclear contribution   :      0.00000       0.00000       0.00000
                        -----------------------------------------
Total Dipole Moment    :      0.00000      -0.00000       0.00000
                        -----------------------------------------
Magnitude (a.u.)       :      0.00000
Magnitude (Debye)      :      0.00000

                             ****ORCA TERMINATED NORMALLY****
TOTAL RUN TIME: 0 days 0 hours 0 minutes 2 seconds 273 msec
