                         Program Version 4.0.0.2 - RELEASE -
|  1> ! UKS b3lyp d3bj def2-TZVP TightSCF Grid4 RI def2/J RIJCOSX
|  2> * xyz 0 3
|  3> O  0.0  0.0  0.0
|  4> *
|  5>
|  6>                          ****END OF INPUT****

CARTESIAN COORDINATES (ANGSTROEM)
---------------------------------
  O      0.000000    0.000000    0.000000

 Total Charge           Charge          ....    0
 Multiplicity           Mult            ....    3
 Number of Electrons    NEL             ....    8
 Basis Dimension        Dim             ....   31

ORBITAL ENERGIES
----------------
                 SPIN UP ORBITALS
  NO   OCC          E(Eh)            E(eV)
   0   1.0000     -19.272146      -524.4218
   1   1.0000      -1.017173       -27.6787
   2   1.0000      -0.459198       -12.4954
   3   1.0000      -0.459198       -12.4954
   4   1.0000      -0.383913       -10.4468
   5   0.0000       0.317650         8.6437
   6   0.0000       0.380206        10.3459
   7   0.0000       0.380206        10.3459
   8   0.0000       0.405889        11.0448
   9   0.0000       1.364386        37.1268

                 SPIN DOWN ORBITALS
  NO   OCC          E(Eh)            E(eV)
   0   1.0000     -19.220514      -523.0168
   1   1.0000      -0.857921       -23.3452
   2   1.0000      -0.333017        -9.0619
   3   0.0000      -0.180117        -4.9012
   4   0.0000      -0.180117        -4.9012
   5   0.0000       0.350940         9.5496
   6   0.0000       0.419694        11.4205
   7   0.0000       0.443174        12.0594

MULLIKEN ATOMIC CHARGES AND SPIN POPULATIONS
--------------------------------------------
   0 O :   -0.000000    2.000000
Sum of atomic charges         :   -0.0000000

LOEWDIN ATOMIC CHARGES AND SPIN POPULATIONS
-------------------------------------------
   0 O :   -0.000000    2.000000

Dispersion correction           -0.000000000
FINAL SINGLE POINT ENERGY       -75.066884434428

DIPOLE MOMENT
-------------
                                X             Y             Z
Electronic contribution:     -0.00000      -0.00000      -0.00000
Nuclear contribution   :      0.00000       0.00000       0.00000
                        -----------------------------------------
Total Dipole Moment    :     -0.00000      -0.00000      -0.00000
                        -----------------------------------------
Magnitude (a.u.)       :      0.00000
Magnitude (Debye)      :      0.00000

                             ****ORCA TERMINATED NORMALLY****
TOTAL RUN TIME: 0 days 0 hours 0 minutes 2 seconds 739 msec
