                         Program Version 4.0.0.2 - RELEASE -
|  1> ! UKS b3lyp d3bj def2-TZVP TightSCF Grid4 RI def2/J RIJCOSX
|  2> * xyz 0 4
|  3> P  0.0  0.0  0.0
|  4> *
|  5>
|  6>                          ****END OF INPUT****

CARTESIAN COORDINATES (ANGSTROEM)
---------------------------------
  P      0.000000    0.000000    0.000000

 Total Charge           Charge          ....    0
 Multiplicity           Mult            ....    4
 Number of Electrons    NEL             ....   15
 Basis Dimension        Dim             ....   37

ORBITAL ENERGIES
----------------
                 SPIN UP ORBITALS
  NO   OCC          E(Eh)            E(eV)
   0   1.0000     -77.098199     -2097.9486
   1   1.0000      -6.579456      -179.0361
   2   1.0000      -4.742767      -129.0572
   3   1.0000      -4.742767      -129.0572
   4   1.0000      -4.742766      -129.0572
   5   1.0000      -0.595416       -16.2021
   6   1.0000      -0.257029        -6.9941
   7   1.0000      -0.257028        -6.9941
   8   1.0000      -0.257025        -6.9940
   9   0.0000       0.225904         6.1472
  10   0.0000       0.225904         6.1472
  11   0.0000       0.225907         6.1472
  12   0.0000       0.249079         6.7778
  13   0.0000       0.249079         6.7778

                 SPIN DOWN ORBITALS
  NO   OCC          E(Eh)            E(eV)
   0   1.0000     -77.083939     -2097.5606
   1   1.0000      -6.566108      -178.6729
   2   1.0000      -4.722135      -128.4958
   3   1.0000      -4.722135      -128.4958
   4   1.0000      -4.722135      -128.4958
   5   1.0000      -0.478966       -13.0333
   6   0.0000      -0.113473        -3.0877
   7   0.0000      -0.113471        -3.0877
   8   0.0000      -0.113470        -3.0877
   9   0.0000       0.262343         7.1387
  10   0.0000       0.262344         7.1387

MULLIKEN ATOMIC CHARGES AND SPIN POPULATIONS
--------------------------------------------
   0 P :   -0.000000    3.000000
Sum of atomic charges         :   -0.0000000

LOEWDIN ATOMIC CHARGES AND SPIN POPULATIONS
-------------------------------------------
   0 P :   -0.000000    3.000000

Dispersion correction           -0.000000000
FINAL SINGLE POINT ENERGY      -341.223942896577

DIPOLE MOMENT
-------------
                                X             Y             Z
Electronic contribution:      0.00000       0.00006      -0.00003
Nuclear contribution   :      0.00000       0.00000       0.00000
                        -----------------------------------------
Total Dipole Moment    :      0.00000       0.00006      -0.00003
                        -----------------------------------------
Magnitude (a.u.)       :      0.00007
Magnitude (Debye)      :      0.00017

                             ****ORCA TERMINATED NORMALLY****
TOTAL RUN TIME: 0 days 0 hours 0 minutes 2 seconds 615 msec
