                         Program Version 4.0.0.2 - RELEASE -
|  1> ! UKS b3lyp d3bj def2-TZVP TightSCF Grid4 RI def2/J RIJCOSX
|  2> * xyz 0 3
|  3> S  0.0  0.0  0.0
|  4> *
|  5>
|  6>                          ****END OF INPUT****

CARTESIAN COORDINATES (ANGSTROEM)
---------------------------------
  S      0.000000    0.000000    0.000000

 Total Charge           Charge          ....    0
 Multiplicity           Mult            ....    3
 Number of Electrons    NEL             ....   16
 Basis Dimension        Dim             ....   37

ORBITAL ENERGIES
----------------
                 SPIN UP ORBITALS
  NO   OCC          E(Eh)            E(eV)
   0   1.0000     -88.912348     -2419.4280
   1   1.0000      -7.984278      -217.2632
   2   1.0000      -5.952825      -161.9846
   3   1.0000      -5.952825      -161.9846
   4   1.0000      -5.934407      -161.4834
   5   1.0000      -0.721689       -19.6382
   6   1.0000      -0.331344        -9.0163
   7   1.0000      -0.331344        -9.0163
   8   1.0000      -0.283911        -7.7256
   9   0.0000       0.258123         7.0239
  10   0.0000       0.258123         7.0239
  11   0.0000       0.278111         7.5678
  12   0.0000       0.288946         7.8626
  13   0.0000       0.288946         7.8626

                 SPIN DOWN ORBITALS
  NO   OCC          E(Eh)            E(eV)
   0   1.0000     -88.900127     -2419.0954
   1   1.0000      -7.973165      -216.9608
   2   1.0000      -5.930326      -161.3724
   3   1.0000      -5.930324      -161.3723
   4   1.0000      -5.927544      -161.2967
   5   1.0000      -0.628390       -17.0994
   6   1.0000      -0.258990        -7.0475
   7   0.0000      -0.173498        -4.7211
   8   0.0000      -0.173497        -4.7211
   9   0.0000       0.285374         7.7654
  10   0.0000       0.293560         7.9882
  11   0.0000       0.293567         7.9884

MULLIKEN ATOMIC CHARGES AND SPIN POPULATIONS
--------------------------------------------
   0 S :    0.000000    2.000000
Sum of atomic charges         :    0.0000000

LOEWDIN ATOMIC CHARGES AND SPIN POPULATIONS
-------------------------------------------
   0 S :    0.000000    2.000000

Dispersion correction           -0.000000000
FINAL SINGLE POINT ENERGY      -398.071516562806

DIPOLE MOMENT
-------------
                                X             Y             Z
Electronic contribution:      0.00001       0.00001      -0.00001
Nuclear contribution   :      0.00000       0.00000       0.00000
                        -----------------------------------------
Total Dipole Moment    :      0.00001       0.00001      -0.00001
                        -----------------------------------------
Magnitude (a.u.)       :      0.00001
Magnitude (Debye)      :      0.00004

                             ****ORCA TERMINATED NORMALLY****
TOTAL RUN TIME: 0 days 0 hours 0 minutes 2 seconds 998 msec
